/*--------------------------------*- C++ -*----------------------------------*\
  =========                 |
  \\      /  F ield         | OpenFOAM: The Open Source CFD Toolbox
   \\    /   O peration     | Website:  https://openfoam.org
    \\  /    A nd           | Version:  13
     \\/     M anipulation  |
\*---------------------------------------------------------------------------*/
FoamFile
{
    format      ascii;
    class       volScalarField;
    location    "0.002";
    object      mag(U);
}
// * * * * * * * * * * * * * * * * * * * * * * * * * * * * * * * * * * * * * //

dimensions      [0 1 -1 0 0 0 0];

internalField   nonuniform List<scalar> 
1000
(
1.38851e-13
1.02324e-13
7.30866e-14
2.19396e-14
7.31013e-15
3.65186e-14
1.01031e-17
6.57362e-14
1.46261e-14
7.30702e-15
2.92197e-14
7.32569e-15
3.65202e-14
9.89637e-18
6.57373e-14
1.46292e-14
5.92223e-18
5.20476e-18
1.4617e-14
2.92191e-14
7.01793e-18
7.31293e-15
2.92191e-14
7.31376e-15
3.29835e-18
5.17735e-28
3.29836e-18
7.31376e-15
2.92201e-14
7.32589e-15
3.65198e-14
1.01028e-17
6.57362e-14
1.46261e-14
7.30702e-15
2.92197e-14
7.32569e-15
3.65202e-14
9.89637e-18
6.57373e-14
1.46292e-14
5.92223e-18
5.20476e-18
1.4617e-14
2.92191e-14
7.01793e-18
7.31293e-15
2.92191e-14
7.31376e-15
3.29835e-18
5.17735e-28
3.29836e-18
7.31376e-15
2.92201e-14
7.32589e-15
3.65198e-14
1.01028e-17
6.57362e-14
1.46261e-14
7.30702e-15
2.92197e-14
7.32569e-15
3.65202e-14
9.89637e-18
6.57373e-14
1.46292e-14
5.92223e-18
5.20476e-18
1.4617e-14
2.92191e-14
7.01793e-18
7.31293e-15
2.92191e-14
7.31376e-15
3.29835e-18
5.17735e-28
3.29836e-18
7.31376e-15
2.92201e-14
7.32589e-15
3.65198e-14
1.01028e-17
6.57362e-14
1.46261e-14
7.30702e-15
2.92197e-14
7.32569e-15
3.65202e-14
9.89637e-18
6.57373e-14
1.46292e-14
5.92223e-18
5.20477e-18
1.4617e-14
2.92193e-14
1.05192e-17
2.20083e-18
7.2891e-15
4.38073e-14
2.92292e-14
8.76411e-14
4.38064e-14
2.92543e-14
7.30623e-14
3.65238e-14
7.30441e-14
2.19279e-14
2.1908e-14
5.29254e-18
9.48487e-18
2.92142e-14
9.10553e-18
9.06781e-18
2.92132e-14
2.72936e-19
3.65206e-14
2.5592e-17
2.92162e-14
3.65658e-14
1.24217e-13
4.38591e-14
2.00084e-17
5.11338e-14
3.65516e-14
7.27819e-15
1.16898e-13
5.84832e-14
1.46055e-14
2.92426e-14
1.0231e-13
7.30621e-14
2.92311e-14
8.7683e-14
5.84746e-14
6.57788e-14
2.92287e-14
2.19205e-14
1.31569e-13
3.21573e-13
3.58137e-13
3.50853e-13
3.43498e-13
3.58149e-13
3.5085e-13
3.36189e-13
4.4585e-13
5.33558e-13
4.45822e-13
3.43533e-13
3.87336e-13
2.3393e-13
2.41183e-13
2.77753e-13
2.55829e-13
3.36206e-13
4.45804e-13
3.94685e-13
3.06994e-13
3.06976e-13
2.04631e-13
4.3866e-14
2.92232e-14
7.31962e-15
7.30601e-14
5.43313e-18
5.84788e-14
8.7702e-14
1.38852e-13
1.16955e-13
8.0412e-14
8.77021e-14
1.24237e-13
1.75418e-13
6.58076e-14
1.16891e-13
5.8453e-14
1.31548e-13
1.02321e-13
1.68091e-13
1.09625e-13
4.38779e-14
2.04674e-13
2.92339e-13
3.50814e-13
3.80082e-13
4.45829e-13
4.82382e-13
4.09295e-13
3.36241e-13
3.87369e-13
4.23906e-13
4.2394e-13
4.53156e-13
4.38503e-13
4.89686e-13
3.8008e-13
2.70428e-13
3.58161e-13
3.21571e-13
3.07013e-13
5.04316e-13
3.43513e-13
2.70399e-13
2.85048e-13
9.50148e-14
1.46362e-14
7.27624e-15
1.02289e-13
8.77258e-14
1.31526e-13
8.03905e-14
2.95174e-17
7.31777e-15
3.652e-14
7.63874e-18
1.46076e-14
2.72637e-17
5.8471e-14
1.16902e-13
7.30787e-14
2.72171e-17
7.29842e-15
2.19097e-14
4.38708e-17
1.09571e-13
4.38444e-14
3.6544e-14
1.31494e-13
2.92445e-14
3.65089e-14
7.29995e-15
1.46323e-14
6.57241e-14
4.38402e-14
1.16899e-13
6.57842e-14
2.92462e-14
2.19249e-14
7.32537e-15
3.65233e-14
7.31612e-15
2.46273e-18
1.04627e-17
2.92185e-14
1.46121e-14
1.45992e-14
7.29149e-15
2.19094e-14
1.7468e-17
2.92138e-14
2.65073e-18
2.19069e-14
7.29311e-15
7.30216e-15
3.91559e-18
7.29599e-15
2.19053e-14
7.29648e-15
2.46907e-18
1.02307e-17
2.92138e-14
5.34214e-18
1.46045e-14
7.29065e-15
2.19081e-14
7.16584e-18
2.19303e-20
1.064e-17
2.92185e-14
1.46121e-14
1.45992e-14
7.29149e-15
2.19094e-14
1.74732e-17
2.92139e-14
1.46205e-14
2.19475e-14
1.60782e-13
3.216e-13
3.72752e-13
3.43532e-13
3.72737e-13
3.65454e-13
3.36213e-13
3.58127e-13
3.72776e-13
3.6544e-13
3.43509e-13
3.43536e-13
3.21582e-13
3.14296e-13
3.36196e-13
3.14286e-13
3.50833e-13
3.50837e-13
4.53131e-13
4.97015e-13
3.8006e-13
1.3888e-13
5.11493e-14
2.92283e-14
9.49958e-14
4.38524e-14
2.92228e-14
5.58339e-18
3.65277e-14
8.77094e-14
2.55799e-13
2.33878e-13
8.77172e-14
1.02329e-13
9.49993e-14
6.57583e-14
1.31569e-13
5.11355e-14
2.63111e-13
2.19303e-13
3.72744e-13
4.60453e-13
5.70096e-13
4.45856e-13
2.55833e-13
3.72719e-13
4.96991e-13
4.09331e-13
5.26255e-13
5.91987e-13
4.89701e-13
5.18956e-13
5.7742e-13
6.65074e-13
6.13949e-13
4.7511e-13
4.45851e-13
3.80038e-13
3.72763e-13
3.4351e-13
3.14334e-13
3.72739e-13
2.99635e-13
1.53483e-13
2.18925e-14
5.84829e-14
1.4626e-14
4.38454e-14
2.92692e-14
5.84793e-14
7.30399e-14
4.38553e-14
4.38156e-14
2.9247e-14
8.76638e-14
4.38346e-14
4.37967e-14
7.32795e-15
1.02253e-13
1.4631e-14
4.38227e-14
1.46027e-14
5.84257e-14
7.31332e-15
2.19262e-14
5.84314e-14
7.30293e-15
5.1127e-14
4.3847e-14
2.92796e-14
1.38841e-13
1.60799e-13
1.24246e-13
1.38888e-13
1.75435e-13
1.16896e-13
5.11587e-14
1.16983e-13
1.38871e-13
6.5743e-14
2.19284e-14
1.02298e-13
5.84655e-14
7.30582e-14
5.8467e-14
5.85003e-14
2.41209e-13
7.96646e-13
1.84917e-12
5.21864e-12
1.48738e-11
4.07037e-11
1.09876e-10
2.97132e-10
7.89071e-10
2.0846e-09
5.43965e-09
1.40525e-08
3.58918e-08
9.06387e-08
2.26227e-07
5.57918e-07
1.35909e-06
3.2691e-06
7.76154e-06
1.81816e-05
4.2004e-05
9.56558e-05
0.000214616
0.000474116
0.0010306
0.00220267
0.00462478
0.00952983
0.0192501
0.0380662
0.0735691
0.138681
0.25431
0.452094
0.775626
1.27755
2.01101
3.01836
4.32358
5.9315
7.83183
10.0044
12.424
15.0632
17.8952
20.895
24.0396
27.3091
30.6859
34.1548
37.703
41.3193
44.9943
48.7199
52.489
56.2957
60.1346
64.0011
67.8909
71.8002
75.7253
79.6626
83.6084
87.5587
91.5091
95.4541
99.3869
103.298
107.177
111.004
114.757
118.403
121.896
125.179
128.184
130.838
133.079
134.871
136.215
137.16
137.791
138.19
138.589
139.228
140.334
142.11
144.642
147.86
151.609
155.73
160.101
164.64
169.293
174.026
178.817
183.65
188.515
193.405
198.315
203.241
208.181
213.132
218.093
223.063
228.04
233.024
238.013
243.006
248
252.994
257.982
262.958
267.912
272.83
277.688
282.455
287.074
291.477
295.536
299.111
302.023
304.183
305.636
306.533
307.058
307.359
307.53
307.62
307.659
307.67
307.665
307.66
307.656
307.653
307.649
307.646
307.643
307.641
307.639
307.637
307.635
307.634
307.631
307.628
307.626
307.625
307.625
307.625
307.624
307.624
307.624
307.626
307.627
307.628
307.628
307.627
307.625
307.622
307.618
307.615
307.613
307.61
307.609
307.607
307.606
307.605
307.604
307.603
307.603
307.603
307.603
307.604
307.607
307.611
307.619
307.631
307.646
307.664
307.679
307.685
307.677
307.655
307.626
307.605
307.6
307.594
307.595
307.599
307.593
307.593
307.595
307.592
307.59
307.59
307.589
307.588
307.586
307.585
307.584
307.583
307.581
307.58
307.578
307.577
307.575
307.573
307.572
307.57
307.568
307.567
307.564
307.563
307.559
307.559
307.553
307.555
307.543
307.551
307.525
307.541
307.482
307.501
307.36
307.341
306.986
306.676
305.84
303.769
301.386
292.043
282.46
247.823
196.403
85.6945
17.453
2.94555
0.483236
0.0788878
0.0128657
0.002098
0.000342104
5.57837e-05
9.09616e-06
1.48324e-06
2.41863e-07
3.94386e-08
6.43164e-09
1.04831e-09
1.71105e-10
2.8083e-11
4.85339e-12
8.70288e-13
3.87573e-13
3.50411e-13
1.97308e-13
5.13448e-14
6.56296e-14
5.14752e-14
1.09602e-13
1.97062e-13
1.68345e-13
2.26235e-13
1.68459e-13
2.33345e-13
2.20565e-14
5.81382e-14
3.66306e-14
2.48529e-13
3.43102e-13
1.46199e-13
2.96265e-16
2.9173e-14
7.38409e-15
1.02462e-13
1.82535e-13
3.65809e-14
3.06724e-13
1.68291e-13
1.80099e-16
9.48873e-14
1.53486e-13
1.75525e-13
1.53412e-13
1.38938e-13
2.16618e-14
6.56876e-14
7.28239e-15
5.80516e-14
7.32558e-14
1.82999e-13
3.57835e-13
2.70427e-13
1.24177e-13
5.16542e-14
2.62935e-13
3.57787e-13
3.36158e-13
2.19393e-13
1.53666e-13
1.89991e-13
1.60787e-13
1.75437e-13
1.53545e-13
1.89833e-13
1.82831e-13
2.19236e-13
2.11826e-13
1.31624e-13
8.03828e-14
2.2151e-14
8.77124e-14
1.31447e-13
1.16948e-13
1.46045e-13
9.49867e-14
3.65147e-14
2.8803e-14
8.74077e-14
6.58963e-14
1.02085e-13
4.38097e-14
5.08471e-14
1.43899e-14
1.31085e-13
6.5836e-14
4.38438e-14
7.46957e-15
3.63799e-14
5.81947e-17
5.81795e-14
7.28438e-15
5.09104e-14
1.4634e-14
7.3505e-15
5.10006e-14
2.93528e-14
5.83338e-14
3.64351e-14
2.20125e-14
1.23766e-13
3.66049e-14
2.16985e-14
7.21598e-15
7.20781e-15
2.17953e-14
6.18417e-18
2.18554e-14
2.90684e-14
5.08824e-14
9.31581e-17
2.20655e-17
1.45085e-14
1.44986e-14
1.04114e-16
5.81857e-14
7.28563e-15
5.09116e-14
1.4634e-14
7.3505e-15
5.10006e-14
2.93528e-14
5.83338e-14
3.64351e-14
2.20125e-14
1.23766e-13
3.66049e-14
2.16985e-14
7.21598e-15
7.20781e-15
2.17953e-14
6.18417e-18
2.18554e-14
2.90684e-14
5.08824e-14
9.31581e-17
2.20655e-17
1.45085e-14
1.44986e-14
1.04114e-16
5.81857e-14
7.28562e-15
5.0913e-14
1.46545e-14
3.14788e-18
2.17993e-14
7.19105e-15
1.44792e-14
2.18013e-14
7.31817e-15
1.69019e-17
4.60817e-17
2.18007e-14
7.20781e-15
7.20925e-15
2.17796e-14
7.25261e-15
1.45031e-14
2.17796e-14
4.62367e-17
2.83037e-18
4.44035e-17
1.46864e-14
5.82956e-14
3.64549e-14
1.46076e-14
6.55469e-14
2.92452e-14
7.32851e-17
4.19141e-17
2.18021e-14
7.19105e-15
1.44792e-14
2.18013e-14
7.31817e-15
1.69019e-17
4.60817e-17
2.18007e-14
7.20781e-15
7.20925e-15
2.17796e-14
7.25261e-15
1.45031e-14
2.17796e-14
4.62346e-17
1.69464e-18
5.76914e-17
2.19438e-14
5.09983e-14
1.47425e-14
4.38942e-14
7.28942e-14
1.48519e-14
7.28627e-14
2.21399e-14
7.28763e-14
2.21002e-14
5.10465e-14
2.93412e-14
5.10358e-14
2.19402e-14
2.18677e-14
7.18111e-15
2.91131e-14
3.66733e-14
1.02092e-13
5.13673e-14
1.09438e-13
6.59067e-14
1.0218e-13
5.11026e-14
2.18457e-14
5.10344e-14
3.65162e-14
1.46141e-14
2.16143e-14
9.46511e-14
2.93947e-14
4.37781e-14
2.93298e-14
5.10569e-14
2.93422e-14
5.10582e-14
2.93409e-14
5.10359e-14
2.19381e-14
2.18646e-14
7.18638e-15
2.91313e-14
4.39232e-14
8.02622e-14
5.85879e-14
8.75786e-14
6.58799e-14
1.02178e-13
5.11022e-14
2.1845e-14
5.10344e-14
3.65162e-14
1.46141e-14
2.16143e-14
9.46511e-14
2.93947e-14
4.37781e-14
2.93298e-14
5.10569e-14
2.93422e-14
5.10582e-14
2.93409e-14
5.10359e-14
2.19381e-14
2.18646e-14
7.18638e-15
2.91313e-14
4.39232e-14
8.02622e-14
5.85879e-14
8.75786e-14
6.58799e-14
1.02178e-13
5.11022e-14
2.1845e-14
5.10345e-14
3.65175e-14
1.46265e-14
1.43525e-14
9.46965e-14
2.20669e-14
3.64806e-14
2.93254e-14
5.10524e-14
2.93421e-14
5.10565e-14
2.93391e-14
4.39557e-14
2.20247e-14
2.93704e-14
2.90709e-14
1.24392e-13
1.16968e-13
1.53486e-13
2.04303e-13
1.82733e-13
3.28799e-13
3.72618e-13
1.09987e-13
3.63441e-14
6.57211e-14
1.23783e-13
1.49086e-14
2.55719e-13
4.23569e-13
3.73226e-13
3e-13
3.35952e-13
3.58035e-13
4.90078e-13
7.52636e-13
6.21273e-13
5.48278e-13
6.42973e-13
6.72341e-13
6.72639e-13
5.99433e-13
4.45708e-13
3.80204e-13
3.651e-13
2.04769e-13
2.852e-13
5.54865e-13
4.75234e-13
4.97007e-13
4.74767e-13
3.43497e-13
2.34412e-13
4.52954e-13
2.849e-13
3.68742e-14
8.06043e-14
3.63118e-14
7.43287e-15
5.89312e-14
4.2378e-13
4.45934e-13
6.65024e-13
7.67301e-13
5.77619e-13
4.01999e-13
1.1695e-13
8.77875e-14
4.0892e-13
4.38881e-13
5.91986e-13
5.18913e-13
4.46378e-13
4.31076e-13
4.02115e-13
5.62878e-13
6.14295e-13
6.50073e-13
5.4075e-13
4.38718e-13
4.82183e-13
3.07376e-13
5.18345e-13
3.58216e-13
3.28583e-13
1.53568e-13
1.7546e-13
8.77303e-14
2.55784e-13
3.43621e-13
4.09395e-13
4.97024e-13
4.092e-13
3.43855e-13
4.16147e-13
1.97292e-13
2.48593e-13
2.1873e-13
2.17427e-14
2.1201e-13
2.92723e-13
5.69965e-13
6.20761e-13
4.89816e-13
5.84839e-13
5.33658e-13
4.97188e-13
5.55247e-13
5.26209e-13
7.23161e-13
6.43439e-13
8.77096e-13
1.10351e-12
1.21336e-12
1.42516e-12
1.43993e-12
)
;

boundaryField
{
    sides
    {
        type            calculated;
        value           nonuniform List<scalar> 2(1.43993e-12 1.38851e-13);
    }
    empty
    {
        type            empty;
    }
}


// ************************************************************************* //
