/*--------------------------------*- C++ -*----------------------------------*\
  =========                 |
  \\      /  F ield         | OpenFOAM: The Open Source CFD Toolbox
   \\    /   O peration     | Website:  https://openfoam.org
    \\  /    A nd           | Version:  13
     \\/     M anipulation  |
\*---------------------------------------------------------------------------*/
FoamFile
{
    format      ascii;
    class       volScalarField;
    location    "0.002";
    object      p;
}
// * * * * * * * * * * * * * * * * * * * * * * * * * * * * * * * * * * * * * //

dimensions      [1 -1 -2 0 0 0 0];

internalField   nonuniform List<scalar> 
1000
(
100000
100000
100000
100000
100000
100000
100000
100000
100000
100000
100000
100000
100000
100000
100000
100000
100000
100000
100000
100000
100000
100000
100000
100000
100000
100000
100000
100000
100000
100000
100000
100000
100000
100000
100000
100000
100000
100000
100000
100000
100000
100000
100000
100000
100000
100000
100000
100000
100000
100000
100000
100000
100000
100000
100000
100000
100000
100000
100000
100000
100000
100000
100000
100000
100000
100000
100000
100000
100000
100000
100000
100000
100000
100000
100000
100000
100000
100000
100000
100000
100000
100000
100000
100000
100000
100000
100000
100000
100000
100000
100000
100000
100000
100000
100000
100000
100000
100000
100000
100000
100000
100000
100000
100000
100000
100000
100000
100000
100000
100000
100000
100000
100000
100000
100000
100000
100000
100000
100000
100000
100000
100000
100000
100000
100000
100000
100000
100000
100000
100000
100000
100000
100000
100000
100000
100000
100000
100000
100000
100000
100000
100000
100000
100000
100000
100000
100000
100000
100000
100000
100000
100000
100000
100000
100000
100000
100000
100000
100000
100000
100000
100000
100000
100000
100000
100000
100000
100000
100000
100000
100000
100000
100000
100000
100000
100000
100000
100000
100000
100000
100000
100000
100000
100000
100000
100000
100000
100000
100000
100000
100000
100000
100000
100000
100000
100000
100000
100000
100000
100000
100000
100000
100000
100000
100000
100000
100000
100000
100000
100000
100000
100000
100000
100000
100000
100000
100000
100000
100000
100000
100000
100000
100000
100000
100000
100000
100000
100000
100000
100000
100000
100000
100000
100000
100000
100000
100000
100000
100000
100000
100000
100000
100000
100000
100000
100000
100000
100000
100000
100000
100000
100000
100000
100000
100000
100000
100000
100000
100000
100000
100000
100000
100000
100000
100000
100000
100000
100000
100000
100000
100000
100000
100000
100000
100000
100000
100000
100000
100000
100000
100000
100000
100000
100000
100000
100000
100000
100000
100000
100000
100000
100000
100000
100000
100000
100000
100000
100000
100000
100000
100000
100000
100000
100000
100000
100000
100000
100000
100000
100000
100000
100000
100000
100000
100000
100000
100000
100000
100000
100000
100000
100000
100000
100000
100000
100000
100000
100000
100000
100000
100000
100000
100000
100000
100000
100000
100000
100000
100000
100000
100000
100000
100000
100000
100000
100000
100000
100000
100000
100000
100000
100000
100000
100000
100000
100000
100000
100000
100000
100000
100000
100000
100000
100000
100000
100000
100000
100000
100000
100000
100000
100000
100000
100000
100000
100000
100000
100000
100000
100000
100000
100000
100000
100000
100000
100000
100000
100000
100000
100000
100000
100000
100000
100000
100000
100000
100000
100000
100000
100000
100000
100000
100000
100000
100000
99999.9
99999.8
99999.6
99999.2
99998.3
99996.4
99992.8
99985.8
99972.5
99948.2
99905.1
99831.3
99710.8
99524
99251.6
98878.4
98396.7
97806.1
97112
96323.6
95452.1
94509.1
93506.2
92453.8
91361.6
90237.7
89089.4
87922.9
86743.3
85555
84361.7
83166.7
81972.5
80781.3
79595.1
78415.6
77244
76081.8
74930
73789.6
72661.8
71547.5
70447.9
69364.2
68298.2
67252
66228.3
65231
64265.7
63339.9
62463.5
61649.4
60912.4
60267.7
59727.9
59299.4
58979.3
58755.5
58607.9
58505.5
58428.6
58302.5
58082.9
57732
57235.9
56611.7
55893.1
55113.8
54299
53465.9
52625
51783.2
50944.9
50113
49289.3
48475
47670.9
46877.6
46095.4
45324.4
44564.9
43816.8
43080.2
42355
41641.3
40939
40248.4
39569.6
38903
38249.3
37609.2
36984.6
36377.5
35792.2
35233.1
34709.8
34231.3
33816.9
33483.7
33238.5
33074.5
32973.5
32914.5
32880.7
32861.6
32851.4
32846.9
32845.7
32846.2
32846.7
32847.2
32847.6
32848
32848.3
32848.6
32848.9
32849.1
32849.2
32849.3
32849.5
32849.8
32850.1
32850.3
32850.3
32850.2
32850.1
32850.1
32850
32849.8
32849.6
32849.3
32849
32848.9
32848.9
32849.1
32849.4
32849.7
32850
32850.2
32850.4
32850.5
32850.5
32850.6
32850.6
32850.5
32850.5
32850.4
32850.3
32850.3
32850.4
32850.6
32851.2
32852.3
32853.9
32856
32858.5
32860.7
32861.8
32860.9
32857.9
32853.8
32850.6
32849.4
32848.5
32848.5
32848.9
32848.1
32848.1
32848.4
32848
32847.8
32847.7
32847.6
32847.5
32847.3
32847.2
32847.1
32846.9
32846.7
32846.6
32846.4
32846.2
32846
32845.8
32845.6
32845.4
32845.2
32844.9
32844.8
32844.5
32844.4
32843.8
32843.9
32842.9
32843.6
32841.4
32843.2
32837.9
32842.5
32828.4
32838.5
32799.7
32816.4
32710.5
32700.6
32384.1
32213.6
31126
30208
26773.3
22318.4
14883.5
11495.5
10854.3
10747.5
10730
10727.2
10726.7
10726.6
10726.6
10726.6
10726.6
10726.6
10726.6
10726.6
10726.6
10726.6
10726.6
10726.6
10726.6
10726.6
10726.6
10726.6
10726.6
10726.6
10726.6
10726.6
10726.6
10726.6
10726.6
10726.6
10726.6
10726.6
10726.6
10726.6
10726.6
10726.6
10726.6
10726.6
10726.6
10726.6
10726.6
10726.6
10726.6
10726.6
10726.6
10726.6
10726.6
10726.6
10726.6
10726.6
10726.6
10726.6
10726.6
10726.6
10726.6
10726.6
10726.6
10726.6
10726.6
10726.6
10726.6
10726.6
10726.6
10726.6
10726.6
10726.6
10726.6
10726.6
10726.6
10726.6
10726.6
10726.6
10726.6
10726.6
10726.6
10726.6
10726.6
10726.6
10726.6
10726.6
10726.6
10726.6
10726.6
10726.6
10726.6
10726.6
10726.6
10726.6
10726.6
10726.6
10726.6
10726.6
10726.6
10726.6
10726.6
10726.6
10726.6
10726.6
10726.6
10726.6
10726.6
10726.6
10726.6
10726.6
10726.6
10726.6
10726.6
10726.6
10726.6
10726.6
10726.6
10726.6
10726.6
10726.6
10726.6
10726.6
10726.6
10726.6
10726.6
10726.6
10726.6
10726.6
10726.6
10726.6
10726.6
10726.6
10726.6
10726.6
10726.6
10726.6
10726.6
10726.6
10726.6
10726.6
10726.6
10726.6
10726.6
10726.6
10726.6
10726.6
10726.6
10726.6
10726.6
10726.6
10726.6
10726.6
10726.6
10726.6
10726.6
10726.6
10726.6
10726.6
10726.6
10726.6
10726.6
10726.6
10726.6
10726.6
10726.6
10726.6
10726.6
10726.6
10726.6
10726.6
10726.6
10726.6
10726.6
10726.6
10726.6
10726.6
10726.6
10726.6
10726.6
10726.6
10726.6
10726.6
10726.6
10726.6
10726.6
10726.6
10726.6
10726.6
10726.6
10726.6
10726.6
10726.6
10726.6
10726.6
10726.6
10726.6
10726.6
10726.6
10726.6
10726.6
10726.6
10726.6
10726.6
10726.6
10726.6
10726.6
10726.6
10726.6
10726.6
10726.6
10726.6
10726.6
10726.6
10726.6
10726.6
10726.6
10726.6
10726.6
10726.6
10726.6
10726.6
10726.6
10726.6
10726.6
10726.6
10726.6
10726.6
10726.6
10726.6
10726.6
10726.6
10726.6
10726.6
10726.6
10726.6
10726.6
10726.6
10726.6
10726.6
10726.6
10726.6
10726.6
10726.6
10726.6
10726.6
10726.6
10726.6
10726.6
10726.6
10726.6
10726.6
10726.6
10726.6
10726.6
10726.6
10726.6
10726.6
10726.6
10726.6
10726.6
10726.6
10726.6
10726.6
10726.6
10726.6
10726.6
10726.6
10726.6
10726.6
10726.6
10726.6
10726.6
10726.6
10726.6
10726.6
10726.6
10726.6
10726.6
10726.6
10726.6
10726.6
10726.6
10726.6
10726.6
10726.6
10726.6
10726.6
10726.6
10726.6
10726.6
10726.6
10726.6
10726.6
10726.6
10726.6
10726.6
10726.6
10726.6
10726.6
10726.6
10726.6
10726.6
10726.6
10726.6
10726.6
10726.6
10726.6
10726.6
10726.6
10726.6
10726.6
10726.6
10726.6
10726.6
10726.6
10726.6
10726.6
10726.6
10726.6
10726.6
10726.6
10726.6
10726.6
10726.6
10726.6
10726.6
10726.6
10726.6
10726.6
10726.6
10726.6
10726.6
10726.6
10726.6
10726.6
10726.6
10726.6
10726.6
10726.6
10726.6
10726.6
10726.6
10726.6
10726.6
10726.6
10726.6
10726.6
10726.6
10726.6
10726.6
10726.6
10726.6
10726.6
10726.6
10726.6
10726.6
10726.6
10726.6
10726.6
10726.6
10726.6
10726.6
10726.6
10726.6
10726.6
10726.6
10726.6
10726.6
10726.6
10726.6
10726.6
10726.6
10726.6
10726.6
10726.6
10726.6
10726.6
10726.6
10726.6
10726.6
10726.6
10726.6
10726.6
10726.6
10726.6
10726.6
10726.6
10726.6
10726.6
10726.6
)
;

boundaryField
{
    sides
    {
        type            zeroGradient;
    }
    empty
    {
        type            empty;
    }
}


// ************************************************************************* //
