/*--------------------------------*- C++ -*----------------------------------*\
  =========                 |
  \\      /  F ield         | OpenFOAM: The Open Source CFD Toolbox
   \\    /   O peration     | Website:  https://openfoam.org
    \\  /    A nd           | Version:  13
     \\/     M anipulation  |
\*---------------------------------------------------------------------------*/
FoamFile
{
    format      ascii;
    class       surfaceScalarField;
    location    "0.002";
    object      phi;
}
// * * * * * * * * * * * * * * * * * * * * * * * * * * * * * * * * * * * * * //

dimensions      [1 0 -1 0 0 0 0];

internalField   nonuniform List<scalar> 
999
(
-4.54747e-13
-4.54747e-13
-2.27374e-13
0
1.13687e-13
1.13687e-13
-1.13687e-13
-1.13687e-13
0
1.13687e-13
1.13687e-13
1.13687e-13
1.13687e-13
-2.27374e-13
-2.27374e-13
0
0
0
2.27374e-13
1.13687e-13
0
-1.13687e-13
-1.13687e-13
0
0
0
0
1.13687e-13
1.13687e-13
1.13687e-13
1.13687e-13
-1.13687e-13
-1.13687e-13
0
1.13687e-13
1.13687e-13
1.13687e-13
1.13687e-13
-2.27374e-13
-2.27374e-13
0
0
0
2.27374e-13
1.13687e-13
0
-1.13687e-13
-1.13687e-13
0
0
0
0
1.13687e-13
1.13687e-13
1.13687e-13
1.13687e-13
-1.13687e-13
-1.13687e-13
0
1.13687e-13
1.13687e-13
1.13687e-13
1.13687e-13
-2.27374e-13
-2.27374e-13
0
0
0
2.27374e-13
1.13687e-13
0
-1.13687e-13
-1.13687e-13
0
0
0
0
1.13687e-13
1.13687e-13
1.13687e-13
1.13687e-13
-1.13687e-13
-1.13687e-13
0
1.13687e-13
1.13687e-13
1.13687e-13
1.13687e-13
-2.27374e-13
-2.27374e-13
0
0
0
2.27374e-13
1.13687e-13
0
0
-1.13687e-13
-1.13687e-13
2.27374e-13
0
-2.27374e-13
-2.27374e-13
-2.27374e-13
0
2.27374e-13
0
-1.13687e-13
1.13687e-13
1.13687e-13
1.13687e-13
0
-1.13687e-13
-2.27374e-13
2.27374e-13
1.13687e-13
2.27374e-13
0
-3.41061e-13
-3.41061e-13
0
-1.13687e-13
-2.27374e-13
-1.13687e-13
2.27374e-13
6.82121e-13
-1.13687e-13
3.41061e-13
-5.68434e-13
-3.41061e-13
-1.13687e-13
4.54747e-13
1.13687e-13
3.41061e-13
2.27374e-13
0
-3.41061e-13
-1.02318e-12
-1.59162e-12
-1.02318e-12
-1.59162e-12
-1.13687e-12
-1.59162e-12
-1.13687e-12
-1.47793e-12
-2.04636e-12
-2.27374e-12
-1.25056e-12
-1.59162e-12
-1.25056e-12
-7.95808e-13
-1.25056e-12
-7.95808e-13
-1.02318e-12
-1.7053e-12
-1.7053e-12
-1.36424e-12
-1.47793e-12
-7.95808e-13
-5.68434e-13
1.13687e-13
1.13687e-13
-2.27374e-13
-2.27374e-13
0
-3.41061e-13
-1.13687e-13
-6.82121e-13
-2.27374e-13
-2.27374e-13
-4.54747e-13
-9.09495e-13
-4.54747e-13
-4.54747e-13
0
4.54747e-13
2.27374e-13
6.82121e-13
6.82121e-13
2.27374e-13
4.54747e-13
1.13687e-12
1.02318e-12
1.7053e-12
1.25056e-12
2.16005e-12
1.81899e-12
1.36424e-12
1.13687e-12
1.81899e-12
1.36424e-12
1.93268e-12
1.59162e-12
2.04636e-12
1.7053e-12
1.25056e-12
1.02318e-12
1.59162e-12
1.25056e-12
1.59162e-12
2.04636e-12
7.95808e-13
1.36424e-12
9.09495e-13
1.13687e-13
-1.13687e-13
-1.13687e-13
-4.54747e-13
-4.54747e-13
-4.54747e-13
-1.13687e-13
0
-1.13687e-13
-1.13687e-13
0
-1.13687e-13
2.27374e-13
4.54747e-13
4.54747e-13
1.13687e-13
0
-1.13687e-13
-1.13687e-13
-2.27374e-13
-3.41061e-13
1.13687e-13
2.27374e-13
3.41061e-13
-1.13687e-13
-1.13687e-13
0
2.27374e-13
1.13687e-13
-3.41061e-13
-5.68434e-13
-2.27374e-13
0
0
-1.13687e-13
-1.13687e-13
-1.13687e-13
1.13687e-13
1.13687e-13
1.13687e-13
0
0
-1.13687e-13
-1.13687e-13
-1.13687e-13
-1.13687e-13
1.13687e-13
1.13687e-13
0
0
0
-1.13687e-13
-1.13687e-13
-1.13687e-13
1.13687e-13
1.13687e-13
1.13687e-13
0
0
-1.13687e-13
-1.13687e-13
-1.13687e-13
1.13687e-13
1.13687e-13
1.13687e-13
0
0
-1.13687e-13
-1.13687e-13
-1.13687e-13
-1.13687e-13
1.13687e-13
-7.95808e-13
-6.82121e-13
-1.7053e-12
-1.13687e-12
-1.7053e-12
-1.13687e-12
-1.7053e-12
-1.02318e-12
-1.81899e-12
-1.13687e-12
-1.7053e-12
-1.02318e-12
-1.59162e-12
-1.02318e-12
-1.59162e-12
-1.02318e-12
-1.7053e-12
-9.09495e-13
-1.59162e-12
-1.81899e-12
-2.04636e-12
-6.82121e-13
-3.41061e-13
3.41061e-13
3.41061e-13
3.41061e-13
1.13687e-13
-1.13687e-13
2.27374e-13
1.13687e-13
-9.09495e-13
-1.02318e-12
-4.54747e-13
-4.54747e-13
-3.41061e-13
-2.27374e-13
-4.54747e-13
-2.27374e-13
1.02318e-12
1.02318e-12
1.13687e-12
1.81899e-12
2.04636e-12
2.50111e-12
1.25056e-12
6.82121e-13
1.81899e-12
1.93268e-12
1.7053e-12
2.38742e-12
1.7053e-12
2.04636e-12
2.04636e-12
2.50111e-12
2.84217e-12
1.93268e-12
1.81899e-12
1.7053e-12
1.59162e-12
1.47793e-12
1.02318e-12
1.81899e-12
1.36424e-12
9.09495e-13
1.13687e-13
-3.41061e-13
0
-2.27374e-13
2.27374e-13
2.27374e-13
2.27374e-13
2.27374e-13
-1.13687e-13
-1.13687e-13
3.41061e-13
3.41061e-13
-1.13687e-13
-1.13687e-13
2.27374e-13
2.27374e-13
-1.13687e-13
-2.27374e-13
1.13687e-13
1.13687e-13
0
-3.41061e-13
1.13687e-13
1.13687e-13
2.27374e-13
5.68434e-13
2.27374e-13
7.95808e-13
5.68434e-13
4.54747e-13
6.82121e-13
6.82121e-13
3.41061e-13
3.41061e-13
4.54747e-13
4.54747e-13
3.41061e-13
-2.27374e-13
-2.27374e-13
-1.13687e-13
2.27374e-13
2.27374e-13
7.95808e-13
1.81899e-12
4.66116e-12
1.19371e-11
3.51292e-11
9.65201e-11
2.63185e-10
7.10884e-10
1.90209e-09
5.03633e-09
1.32109e-08
3.42765e-08
8.79756e-08
2.23265e-07
5.60118e-07
1.38869e-06
3.40146e-06
8.22844e-06
1.96519e-05
4.63194e-05
0.000107698
0.000246912
0.000557889
0.0012416
0.00272002
0.00586161
0.0124157
0.0258252
0.0526955
0.105348
0.206049
0.393569
0.732497
1.32447
2.31749
3.90437
6.29926
9.69242
14.2055
19.873
26.6529
34.4502
43.1397
52.585
62.6503
73.2084
84.1443
95.3572
106.76
118.278
129.85
141.422
152.951
164.4
175.739
186.944
197.992
208.867
219.554
230.04
240.316
250.372
260.2
269.793
279.144
288.243
297.083
305.651
313.932
321.906
329.542
336.801
343.627
349.947
355.674
360.713
364.977
368.414
371.027
372.889
374.125
374.846
375.413
376.144
377.349
379.337
382.304
386.201
390.777
395.738
400.853
405.967
410.982
415.838
420.499
424.946
429.168
433.16
436.92
440.449
443.75
446.826
449.681
452.32
454.747
456.969
458.99
460.814
462.448
463.895
465.161
466.252
467.171
467.925
468.519
468.961
469.259
469.426
469.479
469.443
469.349
469.234
469.13
469.051
468.999
468.967
468.949
468.939
468.932
468.929
468.926
468.924
468.922
468.92
468.917
468.915
468.913
468.911
468.909
468.907
468.905
468.903
468.901
468.899
468.896
468.894
468.892
468.89
468.888
468.886
468.884
468.881
468.879
468.877
468.875
468.872
468.869
468.866
468.862
468.857
468.851
468.842
468.826
468.8
468.752
468.666
468.515
468.252
467.808
467.075
465.903
464.089
461.371
457.444
451.979
444.675
435.325
423.899
410.618
396.009
380.907
366.394
353.643
343.602
336.604
332.232
329.72
328.38
327.699
327.38
327.253
327.208
327.195
327.193
327.201
327.222
327.249
327.27
327.282
327.287
327.29
327.292
327.293
327.295
327.296
327.296
327.295
327.293
327.291
327.287
327.283
327.279
327.273
327.269
327.263
327.259
327.249
327.245
327.229
327.224
327.184
327.171
327.055
326.992
326.644
326.284
325.145
323.517
319.054
312.351
295.615
267.729
211.941
107.585
23.2743
4.0474
0.671223
0.109953
0.0179531
0.00292884
0.000477648
7.78886e-05
1.27007e-05
2.07101e-06
3.37705e-07
5.50673e-08
8.97963e-09
1.46423e-09
2.38785e-10
3.9023e-11
6.45173e-12
1.10845e-12
2.84217e-13
1.7053e-13
1.56319e-13
8.52651e-14
0
-4.26326e-14
-2.84217e-14
-1.13687e-13
-9.9476e-14
-9.9476e-14
-9.9476e-14
-9.9476e-14
-8.52651e-14
4.26326e-14
1.42109e-14
-7.10543e-14
-1.56319e-13
-1.42109e-13
-1.42109e-14
-1.42109e-14
-1.42109e-14
5.68434e-14
8.52651e-14
5.68434e-14
-1.13687e-13
-1.42109e-13
0
-1.42109e-14
-2.84217e-14
-7.10543e-14
-8.52651e-14
-4.26326e-14
-5.68434e-14
0
-4.26326e-14
1.42109e-14
2.84217e-14
4.26326e-14
1.42109e-13
1.84741e-13
9.9476e-14
1.42109e-14
5.68434e-14
1.7053e-13
1.7053e-13
1.27898e-13
9.9476e-14
9.9476e-14
8.52651e-14
7.10543e-14
7.10543e-14
8.52651e-14
9.9476e-14
9.9476e-14
9.9476e-14
1.13687e-13
5.68434e-14
1.42109e-14
0
4.26326e-14
5.68434e-14
7.10543e-14
7.10543e-14
2.84217e-14
-1.42109e-14
-1.42109e-14
4.26326e-14
4.26326e-14
4.26326e-14
1.42109e-14
-2.84217e-14
0
4.26326e-14
2.84217e-14
1.42109e-14
1.42109e-14
1.42109e-14
-1.42109e-14
0
-1.42109e-14
1.42109e-14
0
-1.42109e-14
-2.84217e-14
-2.84217e-14
-2.84217e-14
1.42109e-14
1.42109e-14
4.26326e-14
-1.42109e-14
-1.42109e-14
0
1.42109e-14
1.42109e-14
0
1.42109e-14
-2.84217e-14
1.42109e-14
0
0
0
0
-1.42109e-14
0
-1.42109e-14
1.42109e-14
0
-1.42109e-14
-2.84217e-14
-2.84217e-14
-2.84217e-14
1.42109e-14
1.42109e-14
4.26326e-14
-1.42109e-14
-1.42109e-14
0
1.42109e-14
1.42109e-14
0
1.42109e-14
-2.84217e-14
1.42109e-14
0
0
0
0
-1.42109e-14
0
-1.42109e-14
1.42109e-14
0
-1.42109e-14
-1.42109e-14
0
1.42109e-14
1.42109e-14
0
0
-1.42109e-14
-1.42109e-14
0
1.42109e-14
1.42109e-14
0
1.42109e-14
1.42109e-14
0
0
0
-1.42109e-14
0
-1.42109e-14
4.26326e-14
0
0
0
-1.42109e-14
-1.42109e-14
0
1.42109e-14
1.42109e-14
0
0
-1.42109e-14
-1.42109e-14
0
1.42109e-14
1.42109e-14
0
1.42109e-14
1.42109e-14
0
0
0
-2.84217e-14
1.42109e-14
-1.42109e-14
-1.42109e-14
-5.68434e-14
-2.84217e-14
-2.84217e-14
-2.84217e-14
-1.42109e-14
-1.42109e-14
-2.84217e-14
-2.84217e-14
-2.84217e-14
1.42109e-14
4.26326e-14
-2.84217e-14
2.84217e-14
4.26326e-14
4.26326e-14
4.26326e-14
4.26326e-14
4.26326e-14
4.26326e-14
0
-2.84217e-14
-2.84217e-14
1.42109e-14
-1.42109e-14
-1.42109e-14
-7.10543e-14
-2.84217e-14
-2.84217e-14
-2.84217e-14
-2.84217e-14
-2.84217e-14
-2.84217e-14
-2.84217e-14
-2.84217e-14
1.42109e-14
4.26326e-14
-2.84217e-14
2.84217e-14
4.26326e-14
4.26326e-14
4.26326e-14
4.26326e-14
4.26326e-14
4.26326e-14
0
-2.84217e-14
-2.84217e-14
1.42109e-14
-1.42109e-14
-1.42109e-14
-7.10543e-14
-2.84217e-14
-2.84217e-14
-2.84217e-14
-2.84217e-14
-2.84217e-14
-2.84217e-14
-2.84217e-14
-2.84217e-14
1.42109e-14
4.26326e-14
-2.84217e-14
2.84217e-14
4.26326e-14
4.26326e-14
4.26326e-14
4.26326e-14
4.26326e-14
4.26326e-14
0
-2.84217e-14
-2.84217e-14
1.42109e-14
-1.42109e-14
-1.42109e-14
-7.10543e-14
-2.84217e-14
-2.84217e-14
-2.84217e-14
-2.84217e-14
-2.84217e-14
-2.84217e-14
1.42109e-14
1.42109e-14
0
1.42109e-14
-1.42109e-14
-5.68434e-14
-5.68434e-14
-8.52651e-14
-9.9476e-14
-1.13687e-13
-1.84741e-13
-1.27898e-13
-2.84217e-14
1.42109e-14
-5.68434e-14
-1.42109e-14
-2.84217e-14
-1.98952e-13
-2.13163e-13
-1.56319e-13
-1.7053e-13
-1.7053e-13
-2.27374e-13
-3.2685e-13
-3.2685e-13
-2.98428e-13
-2.84217e-13
-3.2685e-13
-3.2685e-13
-3.12639e-13
-2.41585e-13
-1.7053e-13
-1.7053e-13
-1.42109e-13
-9.9476e-14
-2.13163e-13
-2.55795e-13
-2.41585e-13
-2.27374e-13
-1.84741e-13
-1.27898e-13
-1.7053e-13
-2.27374e-13
-7.10543e-14
0
2.84217e-14
1.42109e-14
0
-1.56319e-13
-2.55795e-13
-2.70006e-13
-3.97904e-13
-3.2685e-13
-2.55795e-13
-8.52651e-14
-1.42109e-14
9.9476e-14
1.98952e-13
2.84217e-13
2.98428e-13
2.41585e-13
2.55795e-13
2.27374e-13
2.27374e-13
3.12639e-13
3.2685e-13
2.98428e-13
2.41585e-13
2.27374e-13
1.56319e-13
1.98952e-13
2.13163e-13
1.56319e-13
1.42109e-13
4.26326e-14
9.9476e-14
-1.42109e-13
-1.7053e-13
-1.98952e-13
-2.41585e-13
-2.41585e-13
-1.84741e-13
-1.7053e-13
-1.42109e-13
-7.10543e-14
-1.13687e-13
-5.68434e-14
7.10543e-14
1.7053e-13
2.27374e-13
3.12639e-13
2.55795e-13
3.12639e-13
2.84217e-13
2.84217e-13
2.70006e-13
2.41585e-13
3.12639e-13
3.2685e-13
3.41061e-13
4.9738e-13
5.40012e-13
6.6791e-13
6.96332e-13
)
;

boundaryField
{
    sides
    {
        type            calculated;
        value           nonuniform List<scalar> 2(7.10543e-13 4.54747e-13);
    }
    empty
    {
        type            empty;
    }
}


// ************************************************************************* //
