/*--------------------------------*- C++ -*----------------------------------*\
  =========                 |
  \\      /  F ield         | OpenFOAM: The Open Source CFD Toolbox
   \\    /   O peration     | Website:  https://openfoam.org
    \\  /    A nd           | Version:  13
     \\/     M anipulation  |
\*---------------------------------------------------------------------------*/
FoamFile
{
    format      ascii;
    class       volScalarField;
    location    "0.002";
    object      rho;
}
// * * * * * * * * * * * * * * * * * * * * * * * * * * * * * * * * * * * * * //

dimensions      [1 -3 0 0 0 0 0];

internalField   nonuniform List<scalar> 
1000
(
0.995488
0.995488
0.995488
0.995488
0.995488
0.995488
0.995488
0.995488
0.995488
0.995488
0.995488
0.995488
0.995488
0.995488
0.995488
0.995488
0.995488
0.995488
0.995488
0.995488
0.995488
0.995488
0.995488
0.995488
0.995488
0.995488
0.995488
0.995488
0.995488
0.995488
0.995488
0.995488
0.995488
0.995488
0.995488
0.995488
0.995488
0.995488
0.995488
0.995488
0.995488
0.995488
0.995488
0.995488
0.995488
0.995488
0.995488
0.995488
0.995488
0.995488
0.995488
0.995488
0.995488
0.995488
0.995488
0.995488
0.995488
0.995488
0.995488
0.995488
0.995488
0.995488
0.995488
0.995488
0.995488
0.995488
0.995488
0.995488
0.995488
0.995488
0.995488
0.995488
0.995488
0.995488
0.995488
0.995488
0.995488
0.995488
0.995488
0.995488
0.995488
0.995488
0.995488
0.995488
0.995488
0.995488
0.995488
0.995488
0.995488
0.995488
0.995488
0.995488
0.995488
0.995488
0.995488
0.995488
0.995488
0.995488
0.995488
0.995488
0.995488
0.995488
0.995488
0.995488
0.995488
0.995488
0.995488
0.995488
0.995488
0.995488
0.995488
0.995488
0.995488
0.995488
0.995488
0.995488
0.995488
0.995488
0.995488
0.995488
0.995488
0.995488
0.995488
0.995488
0.995488
0.995488
0.995488
0.995488
0.995488
0.995488
0.995488
0.995488
0.995488
0.995488
0.995488
0.995488
0.995488
0.995488
0.995488
0.995488
0.995488
0.995488
0.995488
0.995488
0.995488
0.995488
0.995488
0.995488
0.995488
0.995488
0.995488
0.995488
0.995488
0.995488
0.995488
0.995488
0.995488
0.995488
0.995488
0.995488
0.995488
0.995488
0.995488
0.995488
0.995488
0.995488
0.995488
0.995488
0.995488
0.995488
0.995488
0.995488
0.995488
0.995488
0.995488
0.995488
0.995488
0.995488
0.995488
0.995488
0.995488
0.995488
0.995488
0.995488
0.995488
0.995488
0.995488
0.995488
0.995488
0.995488
0.995488
0.995488
0.995488
0.995488
0.995488
0.995488
0.995488
0.995488
0.995488
0.995488
0.995488
0.995488
0.995488
0.995488
0.995488
0.995488
0.995488
0.995488
0.995488
0.995488
0.995488
0.995488
0.995488
0.995488
0.995488
0.995488
0.995488
0.995488
0.995488
0.995488
0.995488
0.995488
0.995488
0.995488
0.995488
0.995488
0.995488
0.995488
0.995488
0.995488
0.995488
0.995488
0.995488
0.995488
0.995488
0.995488
0.995488
0.995488
0.995488
0.995488
0.995488
0.995488
0.995488
0.995488
0.995488
0.995488
0.995488
0.995488
0.995488
0.995488
0.995488
0.995488
0.995488
0.995488
0.995488
0.995488
0.995488
0.995488
0.995488
0.995488
0.995488
0.995488
0.995488
0.995488
0.995488
0.995488
0.995488
0.995488
0.995488
0.995488
0.995488
0.995488
0.995488
0.995488
0.995488
0.995488
0.995488
0.995488
0.995488
0.995488
0.995488
0.995488
0.995488
0.995488
0.995488
0.995488
0.995488
0.995488
0.995488
0.995488
0.995488
0.995488
0.995488
0.995488
0.995488
0.995488
0.995488
0.995488
0.995488
0.995488
0.995488
0.995488
0.995488
0.995488
0.995488
0.995488
0.995488
0.995488
0.995488
0.995488
0.995488
0.995488
0.995488
0.995488
0.995488
0.995488
0.995488
0.995488
0.995488
0.995488
0.995488
0.995488
0.995488
0.995488
0.995488
0.995488
0.995488
0.995488
0.995488
0.995488
0.995488
0.995488
0.995488
0.995488
0.995488
0.995488
0.995488
0.995488
0.995488
0.995488
0.995488
0.995488
0.995488
0.995488
0.995488
0.995488
0.995488
0.995488
0.995488
0.995488
0.995488
0.995488
0.995488
0.995488
0.995488
0.995488
0.995488
0.995488
0.995488
0.995488
0.995488
0.995488
0.995488
0.995488
0.995488
0.995488
0.995488
0.995488
0.995488
0.995488
0.995488
0.995488
0.995488
0.995488
0.995488
0.995488
0.995488
0.995488
0.995488
0.995488
0.995488
0.995488
0.995488
0.995488
0.995488
0.995488
0.995488
0.995488
0.995488
0.995488
0.995488
0.995488
0.995488
0.995488
0.995488
0.995488
0.995488
0.995488
0.995488
0.995488
0.995488
0.995488
0.995488
0.995488
0.995487
0.995487
0.995486
0.995485
0.995482
0.995475
0.995462
0.995437
0.995387
0.995292
0.99512
0.994813
0.994288
0.99343
0.9921
0.990159
0.987499
0.984059
0.979835
0.974861
0.969199
0.962924
0.956116
0.948854
0.94121
0.933249
0.925029
0.916601
0.908006
0.899282
0.89046
0.881566
0.872622
0.863647
0.854659
0.84567
0.836693
0.82774
0.818819
0.80994
0.80111
0.79234
0.783636
0.775009
0.76647
0.758033
0.749715
0.741541
0.733544
0.725769
0.718281
0.711164
0.704527
0.698497
0.693205
0.688762
0.685226
0.682577
0.68072
0.679527
0.678703
0.67781
0.676348
0.6738
0.669729
0.663974
0.656733
0.648397
0.639356
0.629905
0.620239
0.610485
0.60072
0.590995
0.581344
0.571788
0.562341
0.553014
0.543811
0.534737
0.525793
0.516982
0.508304
0.499759
0.491346
0.483066
0.47492
0.466908
0.459034
0.451301
0.443717
0.436292
0.429046
0.422003
0.415213
0.408728
0.402657
0.397106
0.392299
0.388433
0.385588
0.383686
0.382514
0.38183
0.381438
0.381216
0.381098
0.381045
0.381032
0.381036
0.381039
0.381043
0.381046
0.381048
0.38105
0.381052
0.381053
0.381054
0.381055
0.381055
0.381056
0.381057
0.381059
0.38106
0.381059
0.381058
0.381056
0.381055
0.381054
0.381051
0.381048
0.381044
0.381041
0.381039
0.381038
0.381038
0.381039
0.38104
0.381039
0.381036
0.381028
0.381013
0.380984
0.38093
0.380832
0.380661
0.380369
0.379882
0.379097
0.377868
0.376007
0.373284
0.369441
0.364225
0.357432
0.348968
0.338914
0.327575
0.315503
0.30347
0.292387
0.28312
0.276211
0.271633
0.268884
0.26736
0.266569
0.266182
0.266014
0.265953
0.265934
0.265933
0.265938
0.265951
0.265971
0.265991
0.266005
0.266012
0.266017
0.26602
0.266022
0.266025
0.266028
0.266029
0.26603
0.266031
0.26603
0.266029
0.266028
0.266026
0.266024
0.266022
0.266019
0.266019
0.266012
0.266015
0.266002
0.266012
0.265981
0.266006
0.265924
0.265982
0.265757
0.265855
0.265239
0.26519
0.263342
0.262394
0.255972
0.250838
0.230185
0.203412
0.154758
0.130515
0.125479
0.124608
0.124464
0.12444
0.124437
0.124436
0.124436
0.124436
0.124436
0.124436
0.124436
0.124436
0.124436
0.124436
0.124436
0.124436
0.124436
0.124436
0.124436
0.124436
0.124436
0.124436
0.124436
0.124436
0.124436
0.124436
0.124436
0.124436
0.124436
0.124436
0.124436
0.124436
0.124436
0.124436
0.124436
0.124436
0.124436
0.124436
0.124436
0.124436
0.124436
0.124436
0.124436
0.124436
0.124436
0.124436
0.124436
0.124436
0.124436
0.124436
0.124436
0.124436
0.124436
0.124436
0.124436
0.124436
0.124436
0.124436
0.124436
0.124436
0.124436
0.124436
0.124436
0.124436
0.124436
0.124436
0.124436
0.124436
0.124436
0.124436
0.124436
0.124436
0.124436
0.124436
0.124436
0.124436
0.124436
0.124436
0.124436
0.124436
0.124436
0.124436
0.124436
0.124436
0.124436
0.124436
0.124436
0.124436
0.124436
0.124436
0.124436
0.124436
0.124436
0.124436
0.124436
0.124436
0.124436
0.124436
0.124436
0.124436
0.124436
0.124436
0.124436
0.124436
0.124436
0.124436
0.124436
0.124436
0.124436
0.124436
0.124436
0.124436
0.124436
0.124436
0.124436
0.124436
0.124436
0.124436
0.124436
0.124436
0.124436
0.124436
0.124436
0.124436
0.124436
0.124436
0.124436
0.124436
0.124436
0.124436
0.124436
0.124436
0.124436
0.124436
0.124436
0.124436
0.124436
0.124436
0.124436
0.124436
0.124436
0.124436
0.124436
0.124436
0.124436
0.124436
0.124436
0.124436
0.124436
0.124436
0.124436
0.124436
0.124436
0.124436
0.124436
0.124436
0.124436
0.124436
0.124436
0.124436
0.124436
0.124436
0.124436
0.124436
0.124436
0.124436
0.124436
0.124436
0.124436
0.124436
0.124436
0.124436
0.124436
0.124436
0.124436
0.124436
0.124436
0.124436
0.124436
0.124436
0.124436
0.124436
0.124436
0.124436
0.124436
0.124436
0.124436
0.124436
0.124436
0.124436
0.124436
0.124436
0.124436
0.124436
0.124436
0.124436
0.124436
0.124436
0.124436
0.124436
0.124436
0.124436
0.124436
0.124436
0.124436
0.124436
0.124436
0.124436
0.124436
0.124436
0.124436
0.124436
0.124436
0.124436
0.124436
0.124436
0.124436
0.124436
0.124436
0.124436
0.124436
0.124436
0.124436
0.124436
0.124436
0.124436
0.124436
0.124436
0.124436
0.124436
0.124436
0.124436
0.124436
0.124436
0.124436
0.124436
0.124436
0.124436
0.124436
0.124436
0.124436
0.124436
0.124436
0.124436
0.124436
0.124436
0.124436
0.124436
0.124436
0.124436
0.124436
0.124436
0.124436
0.124436
0.124436
0.124436
0.124436
0.124436
0.124436
0.124436
0.124436
0.124436
0.124436
0.124436
0.124436
0.124436
0.124436
0.124436
0.124436
0.124436
0.124436
0.124436
0.124436
0.124436
0.124436
0.124436
0.124436
0.124436
0.124436
0.124436
0.124436
0.124436
0.124436
0.124436
0.124436
0.124436
0.124436
0.124436
0.124436
0.124436
0.124436
0.124436
0.124436
0.124436
0.124436
0.124436
0.124436
0.124436
0.124436
0.124436
0.124436
0.124436
0.124436
0.124436
0.124436
0.124436
0.124436
0.124436
0.124436
0.124436
0.124436
0.124436
0.124436
0.124436
0.124436
0.124436
0.124436
0.124436
0.124436
0.124436
0.124436
0.124436
0.124436
0.124436
0.124436
0.124436
0.124436
0.124436
0.124436
0.124436
0.124436
0.124436
0.124436
0.124436
0.124436
0.124436
0.124436
0.124436
0.124436
0.124436
0.124436
0.124436
0.124436
0.124436
0.124436
0.124436
0.124436
0.124436
0.124436
0.124436
0.124436
0.124436
0.124436
0.124436
0.124436
0.124436
0.124436
0.124436
0.124436
0.124436
0.124436
0.124436
0.124436
0.124436
0.124436
0.124436
0.124436
0.124436
0.124436
0.124436
0.124436
0.124436
0.124436
0.124436
0.124436
0.124436
0.124436
0.124436
0.124436
0.124436
0.124436
0.124436
)
;

boundaryField
{
    sides
    {
        type            calculated;
        value           nonuniform List<scalar> 2(0.124436 0.995488);
    }
    empty
    {
        type            empty;
    }
}


// ************************************************************************* //
