/*--------------------------------*- C++ -*----------------------------------*\
  =========                 |
  \\      /  F ield         | OpenFOAM: The Open Source CFD Toolbox
   \\    /   O peration     | Website:  https://openfoam.org
    \\  /    A nd           | Version:  13
     \\/     M anipulation  |
\*---------------------------------------------------------------------------*/
FoamFile
{
    format      ascii;
    class       volScalarField;
    location    "0.001";
    object      mag(U);
}
// * * * * * * * * * * * * * * * * * * * * * * * * * * * * * * * * * * * * * //

dimensions      [0 1 -1 0 0 0 0];

internalField   nonuniform List<scalar> 
1000
(
1.38859e-13
1.02324e-13
7.30906e-14
2.19356e-14
7.31139e-15
3.65322e-14
5.00717e-18
6.57587e-14
1.46219e-14
7.30807e-15
2.92277e-14
7.31717e-15
3.65328e-14
4.90464e-18
6.57592e-14
1.46235e-14
2.90457e-18
2.60482e-18
1.46174e-14
2.92275e-14
3.48286e-18
7.31096e-15
2.92274e-14
7.31137e-15
1.63321e-18
4.77665e-27
1.63322e-18
7.31137e-15
2.92279e-14
7.31726e-15
3.65326e-14
5.00713e-18
6.57587e-14
1.46219e-14
7.30807e-15
2.92277e-14
7.31717e-15
3.65328e-14
4.90464e-18
6.57592e-14
1.46235e-14
2.90457e-18
2.60482e-18
1.46174e-14
2.92275e-14
3.48286e-18
7.31096e-15
2.92274e-14
7.31137e-15
1.63321e-18
4.77665e-27
1.63322e-18
7.31137e-15
2.92279e-14
7.31726e-15
3.65326e-14
5.00713e-18
6.57587e-14
1.46219e-14
7.30807e-15
2.92277e-14
7.31717e-15
3.65328e-14
4.90464e-18
6.57592e-14
1.46235e-14
2.90457e-18
2.60482e-18
1.46174e-14
2.92275e-14
3.48286e-18
7.31096e-15
2.92274e-14
7.31137e-15
1.63321e-18
4.77665e-27
1.63322e-18
7.31137e-15
2.92279e-14
7.31726e-15
3.65326e-14
5.00713e-18
6.57587e-14
1.46219e-14
7.30807e-15
2.92277e-14
7.31717e-15
3.65328e-14
4.90464e-18
6.57592e-14
1.46235e-14
2.90457e-18
2.60482e-18
1.46174e-14
2.92276e-14
5.21495e-18
1.05719e-18
7.29898e-15
4.38307e-14
2.92327e-14
8.76769e-14
4.38318e-14
2.92458e-14
7.30786e-14
3.65373e-14
7.30751e-14
2.19279e-14
2.1921e-14
2.27808e-18
4.80605e-18
2.9225e-14
4.53113e-18
4.49362e-18
2.92247e-14
8.7242e-19
3.65343e-14
1.47779e-17
2.92342e-14
3.65625e-14
1.2425e-13
4.3853e-14
1.90227e-18
5.11455e-14
3.65567e-14
7.29483e-15
1.16933e-13
5.8483e-14
1.46056e-14
2.92386e-14
1.02331e-13
7.30773e-14
1.46218e-14
8.03918e-14
8.03959e-14
7.30957e-14
2.19176e-14
7.31325e-15
4.40618e-18
2.92247e-14
8.7242e-19
3.65343e-14
1.47779e-17
2.92342e-14
3.65625e-14
1.2425e-13
4.3853e-14
1.90227e-18
5.11455e-14
3.65567e-14
7.29483e-15
1.16933e-13
5.8483e-14
1.46056e-14
2.92386e-14
1.02331e-13
7.30773e-14
1.46218e-14
8.03918e-14
8.03959e-14
7.30957e-14
2.19176e-14
7.31325e-15
4.44834e-18
2.92254e-14
1.09635e-13
1.16953e-13
6.57694e-14
2.92343e-14
1.38883e-13
4.3852e-14
2.19177e-14
6.57759e-14
1.02323e-13
9.50092e-14
5.11777e-14
7.30848e-14
4.38611e-14
7.30787e-14
4.38542e-14
4.38461e-14
7.30691e-15
8.7684e-14
1.46229e-14
2.92247e-14
8.68472e-18
2.92252e-14
3.2063e-18
7.31207e-15
3.65323e-14
3.79109e-18
1.46127e-14
1.31151e-17
5.84715e-14
1.16922e-13
6.57785e-14
7.31767e-15
5.28511e-18
5.11504e-14
1.46298e-14
4.38337e-14
1.46191e-14
7.30852e-14
1.16928e-13
6.57788e-14
2.92341e-14
1.46108e-14
7.29977e-15
1.02311e-13
8.77176e-14
1.31544e-13
8.03961e-14
1.24528e-17
7.31319e-15
3.65324e-14
3.7911e-18
1.46127e-14
1.31151e-17
5.84715e-14
1.16923e-13
7.30845e-14
1.24448e-17
7.30404e-15
2.19177e-14
2.07822e-17
1.09604e-13
4.38498e-14
3.65438e-14
1.31532e-13
2.92389e-14
3.65303e-14
7.30473e-15
1.46264e-14
6.57549e-14
4.38471e-14
1.16924e-13
6.57826e-14
2.92403e-14
2.19252e-14
7.31736e-15
3.65342e-14
7.31259e-15
1.0064e-18
5.26315e-18
2.92271e-14
1.46151e-14
1.46085e-14
7.30023e-15
2.19182e-14
8.73307e-18
2.92248e-14
1.29837e-18
2.19169e-14
7.30102e-15
7.30549e-15
2.04499e-18
7.30244e-15
2.19161e-14
7.30272e-15
1.22081e-18
5.13512e-18
2.92248e-14
2.63814e-18
1.46112e-14
7.2998e-15
2.19175e-14
3.63067e-18
2.14796e-20
5.33608e-18
2.92271e-14
1.46151e-14
1.46085e-14
7.30023e-15
2.19182e-14
8.73307e-18
2.92248e-14
1.29837e-18
2.19169e-14
7.30102e-15
7.30549e-15
2.04499e-18
7.30244e-15
2.19161e-14
7.30272e-15
1.22081e-18
5.13512e-18
2.92248e-14
2.73868e-18
1.46099e-14
1.46075e-14
1.46091e-14
7.30008e-15
2.19173e-14
1.64757e-18
2.92266e-14
1.46113e-14
3.65299e-14
7.31339e-15
2.19238e-14
7.30863e-14
1.53496e-13
2.33889e-13
2.0463e-13
2.41197e-13
1.90042e-13
1.09634e-13
1.09627e-13
9.50112e-14
7.30219e-15
2.19249e-14
8.77121e-14
7.30891e-14
1.24246e-13
8.76983e-14
9.50187e-14
3.65624e-14
4.38537e-14
7.31034e-14
1.53482e-13
7.30871e-14
1.46146e-14
2.9248e-14
8.04063e-14
8.03773e-14
1.46111e-14
5.84519e-14
3.73388e-18
8.03825e-14
7.30799e-15
3.65339e-14
2.19153e-14
5.84488e-14
1.46155e-14
3.65303e-14
1.46124e-14
3.65285e-14
3.62034e-18
7.31818e-15
8.0367e-14
2.1919e-14
8.03758e-14
2.19266e-14
3.65259e-14
7.30049e-15
2.28485e-18
1.4621e-14
5.11474e-14
7.30407e-15
6.57547e-14
1.82981e-18
5.11449e-14
1.4612e-14
5.84505e-14
2.19174e-14
8.03706e-14
2.19176e-14
8.7672e-14
6.26863e-18
4.38383e-14
1.46108e-14
5.84495e-14
7.31093e-15
2.19266e-14
5.84517e-14
7.30599e-15
5.84537e-14
2.19236e-14
3.65237e-14
2.19131e-14
1.74414e-18
7.31293e-15
3.65357e-14
2.19144e-14
6.57545e-14
7.30563e-15
6.57544e-14
1.5296e-18
7.30645e-14
1.46185e-14
3.65317e-14
2.19198e-14
2.92208e-14
4.31385e-18
5.11442e-14
7.30498e-15
5.84537e-14
2.19251e-14
3.65432e-14
1.38891e-13
1.97337e-13
1.53473e-13
8.03977e-14
1.09648e-13
1.31556e-13
1.75409e-13
1.02325e-13
4.38601e-14
2.92388e-14
6.57887e-14
1.46275e-14
1.46102e-14
2.92339e-14
5.84677e-14
5.84744e-14
5.84737e-14
5.84693e-14
2.92369e-14
5.84664e-14
2.92405e-14
5.84671e-14
2.92398e-14
5.84676e-14
2.92395e-14
5.84678e-14
2.92381e-14
2.92366e-14
8.0388e-14
2.2681e-18
5.84713e-14
2.19091e-14
7.30844e-14
8.03874e-14
2.92289e-14
2.92428e-14
6.57745e-14
6.5776e-14
2.92404e-14
2.92368e-14
6.57777e-14
2.63123e-13
1.03057e-12
3.47909e-12
1.23668e-11
4.10985e-11
1.36415e-10
4.47464e-10
1.44664e-09
4.60677e-09
1.44432e-08
4.45574e-08
1.35217e-07
4.03432e-07
1.18287e-06
3.40637e-06
9.62928e-06
2.67032e-05
7.25938e-05
0.000193313
0.000503812
0.00128379
0.00319476
0.00775421
0.0183282
0.0421107
0.0938428
0.202291
0.42039
0.838424
1.59444
2.8659
4.82517
7.57707
11.1328
15.434
20.3895
25.9008
31.8748
38.2291
44.893
51.8069
58.9203
66.1891
73.5734
81.0331
88.5233
95.9872
103.345
110.479
117.221
123.35
128.621
132.838
136.005
138.2
140.7
144.601
150.31
157.569
165.874
174.8
184.086
193.586
203.226
212.965
222.779
232.65
242.557
252.471
262.323
271.993
281.22
289.614
296.541
301.542
304.536
306.077
306.826
307.206
307.415
307.537
307.605
307.639
307.65
307.647
307.642
307.636
307.629
307.623
307.616
307.61
307.605
307.599
307.594
307.589
307.585
307.582
307.58
307.585
307.598
307.622
307.655
307.69
307.703
307.674
307.611
307.533
307.545
307.549
307.507
307.537
307.546
307.512
307.513
307.498
307.498
307.483
307.445
307.414
307.29
307.267
306.944
306.686
305.91
304.188
302.067
294.097
285.986
255.999
213.405
110.871
25.8036
4.39719
0.725148
0.118461
0.0193216
0.00315059
0.000513621
8.37153e-05
1.36422e-05
2.22273e-06
3.6209e-07
5.8977e-08
9.60496e-09
1.56355e-09
2.54435e-10
4.1285e-11
6.68096e-12
9.50327e-13
3.58239e-13
5.04087e-13
4.09234e-13
1.53654e-13
3.64238e-14
7.24348e-15
5.11739e-14
8.76245e-14
1.53446e-13
1.53477e-13
2.11954e-13
2.41148e-13
2.19468e-14
1.46129e-13
1.16903e-13
1.24243e-13
2.11925e-13
2.48483e-13
2.26574e-13
2.19311e-13
2.33865e-13
2.04607e-13
2.04685e-13
2.77828e-13
3.28756e-13
1.68087e-13
5.86409e-14
2.04615e-13
6.5742e-14
2.18675e-14
2.91359e-14
1.45882e-14
2.90958e-14
3.65394e-14
1.02066e-13
5.09565e-14
1.46035e-14
2.90887e-14
8.75286e-14
2.92555e-14
2.1819e-14
2.18566e-14
1.45525e-14
4.37525e-14
2.91747e-14
2.91729e-14
5.82997e-14
5.82612e-14
3.65614e-14
7.3201e-14
1.60819e-13
2.48349e-13
1.02308e-13
5.09556e-14
5.12331e-14
3.06654e-13
2.04556e-13
7.48213e-15
1.47366e-14
1.38722e-13
6.58049e-14
1.45003e-14
1.46316e-14
7.50426e-15
1.16916e-13
1.82588e-13
1.53632e-13
2.04443e-13
1.68328e-13
2.99471e-13
1.02285e-13
5.12618e-14
9.49692e-14
7.32033e-14
6.74709e-17
5.11658e-14
7.29863e-14
2.1899e-14
5.10965e-14
8.02817e-14
1.46721e-14
5.23379e-18
2.20264e-14
1.16841e-13
9.49056e-14
5.12414e-14
6.57202e-14
1.45783e-14
9.49326e-14
1.0966e-13
1.89893e-13
9.50156e-14
3.65231e-14
6.55717e-14
2.1878e-14
7.29029e-14
4.3706e-14
2.19119e-14
1.46644e-14
8.01413e-14
7.29804e-14
1.02126e-13
4.3899e-14
7.31601e-14
1.09687e-13
8.04011e-14
1.38825e-13
1.75496e-13
1.53474e-13
1.89884e-13
1.82781e-13
2.19295e-13
2.11926e-13
1.31594e-13
8.03776e-14
2.19849e-14
8.77357e-14
1.31524e-13
1.16902e-13
1.46151e-13
9.50059e-14
3.65065e-14
2.90364e-14
8.75725e-14
6.58398e-14
1.02214e-13
3.65386e-14
4.37182e-14
7.21609e-15
1.2404e-13
6.5803e-14
4.38517e-14
7.38712e-15
3.64659e-14
3.15079e-17
5.83276e-14
7.29712e-15
5.10381e-14
1.46265e-14
7.32945e-15
5.10824e-14
2.92944e-14
5.84023e-14
3.64946e-14
2.19691e-14
1.24016e-13
3.65755e-14
2.18156e-14
7.26229e-15
7.25845e-15
2.18614e-14
2.81937e-18
2.18895e-14
2.18493e-14
4.37197e-14
4.49181e-17
1.11723e-17
1.45634e-14
1.45586e-14
5.13224e-17
5.83303e-14
7.29765e-15
5.10386e-14
1.46265e-14
7.32945e-15
5.10824e-14
2.92944e-14
5.84023e-14
3.64946e-14
2.19691e-14
1.24016e-13
3.65755e-14
2.18156e-14
7.26229e-15
7.25845e-15
2.18614e-14
2.81937e-18
2.18895e-14
2.18493e-14
4.37197e-14
4.49181e-17
1.11723e-17
1.45634e-14
1.45586e-14
5.13224e-17
5.83303e-14
7.29765e-15
5.10393e-14
1.46364e-14
1.85377e-18
2.18635e-14
7.25013e-15
1.45488e-14
2.18647e-14
7.31331e-15
8.46343e-18
2.29043e-17
2.18641e-14
7.25845e-15
7.25917e-15
2.18536e-14
7.28081e-15
1.45609e-14
2.18536e-14
2.30624e-17
1.4325e-18
2.17718e-17
1.46519e-14
5.83846e-14
3.65009e-14
1.46134e-14
6.56647e-14
2.92411e-14
3.59051e-17
2.09011e-17
2.18648e-14
7.25012e-15
1.45488e-14
2.18647e-14
7.31331e-15
8.46343e-18
2.29043e-17
2.18641e-14
7.25845e-15
7.25917e-15
2.18536e-14
7.28081e-15
1.45609e-14
2.18536e-14
2.30622e-17
1.01041e-18
2.66205e-17
2.19396e-14
5.10822e-14
1.46564e-14
4.3893e-14
7.30049e-14
1.47159e-14
7.29881e-14
2.20223e-14
7.29961e-14
2.20058e-14
5.11041e-14
2.9292e-14
5.11027e-14
2.19574e-14
2.19604e-14
7.26189e-15
2.91359e-14
4.39269e-14
1.02229e-13
5.12456e-14
1.02239e-13
6.58209e-14
1.02294e-13
5.11362e-14
2.19066e-14
5.10998e-14
3.65336e-14
1.46174e-14
2.18048e-14
9.48764e-14
2.93085e-14
4.38061e-14
2.9287e-14
5.11083e-14
2.92916e-14
5.11089e-14
2.9291e-14
5.11029e-14
2.19552e-14
2.19573e-14
7.26683e-15
2.91508e-14
4.39016e-14
8.03348e-14
5.85288e-14
8.76377e-14
6.58151e-14
1.02292e-13
5.11361e-14
2.19059e-14
5.10997e-14
3.65336e-14
1.46174e-14
2.18048e-14
9.48764e-14
2.93085e-14
4.38061e-14
2.9287e-14
5.11083e-14
2.92916e-14
5.11089e-14
2.9291e-14
5.11029e-14
2.19552e-14
2.19573e-14
7.26683e-15
2.91508e-14
4.39016e-14
8.03348e-14
5.85288e-14
8.76377e-14
6.58151e-14
1.02292e-13
5.11361e-14
2.19059e-14
5.10999e-14
3.65349e-14
1.463e-14
1.45432e-14
9.49228e-14
2.19892e-14
3.64902e-14
2.9291e-14
5.11045e-14
2.92915e-14
5.11076e-14
2.92939e-14
5.11049e-14
2.92976e-14
5.83668e-14
2.93459e-14
1.02324e-13
2.77739e-13
3.21669e-13
2.70394e-13
1.97277e-13
2.41141e-13
8.76744e-14
1.16881e-13
2.92329e-14
8.04997e-14
1.09449e-13
1.17002e-13
7.30871e-14
1.75523e-13
3.9434e-13
4.4577e-13
2.34013e-13
1.53518e-13
2.19122e-13
1.24296e-13
3.66032e-14
1.38881e-13
2.26546e-13
2.26508e-13
2.85152e-13
3.21634e-13
4.45834e-13
6.28645e-13
7.23478e-13
6.7974e-13
7.30967e-13
8.76891e-13
7.9674e-13
6.28539e-13
4.09106e-13
2.04507e-13
7.09335e-15
7.38006e-18
6.56123e-14
2.11863e-13
4.09232e-13
7.37975e-13
6.57926e-13
7.81882e-13
6.72388e-13
5.19001e-13
4.02016e-13
3.1435e-13
2.41183e-13
1.31516e-13
7.33481e-15
1.82693e-13
2.48643e-13
4.8957e-13
5.84736e-13
6.57804e-13
7.30724e-13
5.84792e-13
6.43164e-13
3.21403e-13
3.58003e-13
1.82922e-13
8.03703e-14
1.25161e-16
1.89962e-13
4.38449e-13
7.16066e-13
6.87146e-13
7.74575e-13
6.50461e-13
5.26309e-13
4.02016e-13
3.1435e-13
2.41183e-13
1.31516e-13
7.3407e-15
1.89997e-13
2.63262e-13
5.11496e-13
5.99317e-13
6.57868e-13
8.03796e-13
7.23665e-13
7.30897e-13
4.89426e-13
1.67993e-13
2.94168e-14
8.77106e-14
1.75527e-13
2.63052e-13
4.01896e-13
8.91557e-13
8.91706e-13
9.20766e-13
8.25933e-13
7.82114e-13
7.60086e-13
6.43204e-13
5.33639e-13
4.75107e-13
)
;

boundaryField
{
    sides
    {
        type            calculated;
        value           nonuniform List<scalar> 2(4.75107e-13 1.38859e-13);
    }
    empty
    {
        type            empty;
    }
}


// ************************************************************************* //
