/*--------------------------------*- C++ -*----------------------------------*\
  =========                 |
  \\      /  F ield         | OpenFOAM: The Open Source CFD Toolbox
   \\    /   O peration     | Website:  https://openfoam.org
    \\  /    A nd           | Version:  13
     \\/     M anipulation  |
\*---------------------------------------------------------------------------*/
FoamFile
{
    format      ascii;
    class       surfaceScalarField;
    location    "0.001";
    object      phi;
}
// * * * * * * * * * * * * * * * * * * * * * * * * * * * * * * * * * * * * * //

dimensions      [1 0 -1 0 0 0 0];

internalField   nonuniform List<scalar> 
999
(
-4.54747e-13
-4.54747e-13
-2.27374e-13
0
1.13687e-13
1.13687e-13
-1.13687e-13
-1.13687e-13
0
1.13687e-13
1.13687e-13
1.13687e-13
1.13687e-13
-2.27374e-13
-2.27374e-13
0
0
0
2.27374e-13
1.13687e-13
0
-1.13687e-13
-1.13687e-13
0
0
0
0
1.13687e-13
1.13687e-13
1.13687e-13
1.13687e-13
-1.13687e-13
-1.13687e-13
0
1.13687e-13
1.13687e-13
1.13687e-13
1.13687e-13
-2.27374e-13
-2.27374e-13
0
0
0
2.27374e-13
1.13687e-13
0
-1.13687e-13
-1.13687e-13
0
0
0
0
1.13687e-13
1.13687e-13
1.13687e-13
1.13687e-13
-1.13687e-13
-1.13687e-13
0
1.13687e-13
1.13687e-13
1.13687e-13
1.13687e-13
-2.27374e-13
-2.27374e-13
0
0
0
2.27374e-13
1.13687e-13
0
-1.13687e-13
-1.13687e-13
0
0
0
0
1.13687e-13
1.13687e-13
1.13687e-13
1.13687e-13
-1.13687e-13
-1.13687e-13
0
1.13687e-13
1.13687e-13
1.13687e-13
1.13687e-13
-2.27374e-13
-2.27374e-13
0
0
0
2.27374e-13
1.13687e-13
0
0
-1.13687e-13
-1.13687e-13
2.27374e-13
0
-2.27374e-13
-2.27374e-13
-2.27374e-13
0
2.27374e-13
0
-1.13687e-13
1.13687e-13
1.13687e-13
1.13687e-13
0
-1.13687e-13
-2.27374e-13
2.27374e-13
1.13687e-13
2.27374e-13
0
-3.41061e-13
-3.41061e-13
0
-1.13687e-13
-2.27374e-13
-1.13687e-13
2.27374e-13
6.82121e-13
-1.13687e-13
3.41061e-13
-5.68434e-13
-4.54747e-13
-2.27374e-13
4.54747e-13
1.13687e-13
3.41061e-13
2.27374e-13
0
0
-1.13687e-13
-2.27374e-13
2.27374e-13
1.13687e-13
2.27374e-13
0
-3.41061e-13
-3.41061e-13
0
-1.13687e-13
-2.27374e-13
-1.13687e-13
2.27374e-13
6.82121e-13
-1.13687e-13
3.41061e-13
-5.68434e-13
-4.54747e-13
-2.27374e-13
4.54747e-13
1.13687e-13
3.41061e-13
2.27374e-13
0
0
0
-3.41061e-13
-3.41061e-13
-3.41061e-13
-1.13687e-13
-5.68434e-13
-2.27374e-13
0
0
2.27374e-13
4.54747e-13
3.41061e-13
2.27374e-13
2.27374e-13
2.27374e-13
4.54747e-13
1.13687e-13
1.13687e-13
-2.27374e-13
-2.27374e-13
0
2.27374e-13
1.13687e-13
1.13687e-13
0
-1.13687e-13
-1.13687e-13
0
-1.13687e-13
2.27374e-13
4.54747e-13
4.54747e-13
1.13687e-13
0
-2.27374e-13
0
-1.13687e-13
-1.13687e-13
3.41061e-13
3.41061e-13
4.54747e-13
2.27374e-13
0
-1.13687e-13
-1.13687e-13
-4.54747e-13
-4.54747e-13
-4.54747e-13
-1.13687e-13
0
-1.13687e-13
-1.13687e-13
0
-1.13687e-13
2.27374e-13
4.54747e-13
4.54747e-13
1.13687e-13
0
-1.13687e-13
-1.13687e-13
-2.27374e-13
-3.41061e-13
1.13687e-13
2.27374e-13
3.41061e-13
-1.13687e-13
-1.13687e-13
0
2.27374e-13
1.13687e-13
-3.41061e-13
-5.68434e-13
-2.27374e-13
0
0
-1.13687e-13
-1.13687e-13
-1.13687e-13
1.13687e-13
1.13687e-13
1.13687e-13
0
0
-1.13687e-13
-1.13687e-13
-1.13687e-13
-1.13687e-13
1.13687e-13
1.13687e-13
0
0
0
-1.13687e-13
-1.13687e-13
-1.13687e-13
1.13687e-13
1.13687e-13
1.13687e-13
0
0
-1.13687e-13
-1.13687e-13
-1.13687e-13
1.13687e-13
1.13687e-13
1.13687e-13
0
0
-1.13687e-13
-1.13687e-13
-1.13687e-13
-1.13687e-13
1.13687e-13
1.13687e-13
0
0
0
-1.13687e-13
-1.13687e-13
-1.13687e-13
1.13687e-13
1.13687e-13
1.13687e-13
0
0
0
0
-1.13687e-13
0
0
1.13687e-13
-1.13687e-13
0
-1.13687e-13
2.27374e-13
3.41061e-13
9.09495e-13
1.02318e-12
6.82121e-13
1.02318e-12
6.82121e-13
4.54747e-13
4.54747e-13
2.27374e-13
0
-2.27374e-13
-2.27374e-13
-3.41061e-13
-6.82121e-13
-3.41061e-13
-2.27374e-13
1.13687e-13
2.27374e-13
4.54747e-13
5.68434e-13
-1.13687e-13
0
2.27374e-13
2.27374e-13
2.27374e-13
-1.13687e-13
-2.27374e-13
2.27374e-13
2.27374e-13
-1.13687e-13
-2.27374e-13
1.13687e-13
2.27374e-13
-1.13687e-13
-2.27374e-13
1.13687e-13
1.13687e-13
0
-3.41061e-13
1.13687e-13
1.13687e-13
2.27374e-13
-1.13687e-13
-1.13687e-13
0
0
-1.13687e-13
-2.27374e-13
1.13687e-13
1.13687e-13
-1.13687e-13
-2.27374e-13
1.13687e-13
2.27374e-13
-2.27374e-13
-2.27374e-13
1.13687e-13
2.27374e-13
-1.13687e-13
-2.27374e-13
1.13687e-13
1.13687e-13
0
-3.41061e-13
1.13687e-13
1.13687e-13
2.27374e-13
-1.13687e-13
-1.13687e-13
0
0
-1.13687e-13
-2.27374e-13
1.13687e-13
1.13687e-13
-1.13687e-13
-2.27374e-13
1.13687e-13
2.27374e-13
-1.13687e-13
-2.27374e-13
1.13687e-13
1.13687e-13
-1.13687e-13
-2.27374e-13
1.13687e-13
1.13687e-13
1.13687e-13
3.41061e-13
1.13687e-12
7.95808e-13
4.54747e-13
4.54747e-13
4.54747e-13
6.82121e-13
5.68434e-13
2.27374e-13
2.27374e-13
-1.13687e-13
-1.13687e-13
0
-1.13687e-13
-2.27374e-13
-2.27374e-13
-2.27374e-13
-2.27374e-13
-2.27374e-13
-2.27374e-13
-2.27374e-13
-2.27374e-13
-2.27374e-13
-2.27374e-13
-2.27374e-13
-2.27374e-13
-2.27374e-13
-2.27374e-13
-2.27374e-13
-1.13687e-13
1.13687e-13
2.27374e-13
0
-5.68434e-13
-1.13687e-13
2.27374e-13
2.27374e-13
2.27374e-13
2.27374e-13
2.27374e-13
2.27374e-13
5.68434e-13
1.93268e-12
7.61702e-12
2.6489e-11
9.09495e-11
3.01497e-10
9.93055e-10
3.22837e-09
1.03382e-08
3.26033e-08
1.01198e-07
3.09043e-07
9.28136e-07
2.73995e-06
7.94681e-06
2.26323e-05
6.32541e-05
0.000173375
0.000465702
0.00122489
0.00315178
0.00792553
0.0194534
0.0465422
0.10836
0.24502
0.536794
1.13605
2.3137
4.51073
8.3536
14.5491
23.6252
35.7014
50.5052
67.5495
86.2899
106.21
126.86
147.862
168.913
189.771
210.242
230.174
249.442
267.937
285.552
302.168
317.634
331.744
344.231
354.799
363.201
369.359
373.285
376.598
381.082
387.622
395.933
405.137
414.428
423.281
431.421
438.739
445.215
450.856
455.682
459.717
462.992
465.543
467.405
468.624
469.269
469.457
469.355
469.161
469.004
468.91
468.861
468.834
468.818
468.806
468.798
468.791
468.785
468.778
468.771
468.763
468.754
468.744
468.729
468.702
468.645
468.518
468.241
467.666
466.541
464.467
460.88
455.07
446.293
433.98
418.039
399.167
379.043
360.263
345.536
336.103
331.007
328.439
327.314
326.907
326.741
326.694
326.689
326.74
326.857
326.965
326.994
326.919
326.853
326.539
326.188
325.153
323.721
319.875
314.146
299.646
275.909
227.22
133.791
34.1362
6.00291
1.00558
0.165025
0.0269571
0.0043983
0.00071724
0.000116925
1.90567e-05
3.10529e-06
5.05917e-07
8.24115e-08
1.34225e-08
2.18574e-09
3.55797e-10
5.78524e-11
9.35074e-12
1.46372e-12
2.98428e-13
1.98952e-13
2.27374e-13
1.42109e-13
1.42109e-14
-1.42109e-14
2.84217e-14
0
7.10543e-14
7.10543e-14
8.52651e-14
1.13687e-13
7.10543e-14
-4.26326e-14
-7.10543e-14
-7.10543e-14
-8.52651e-14
-9.9476e-14
-9.9476e-14
-1.13687e-13
-1.42109e-13
-9.9476e-14
-9.9476e-14
-1.13687e-13
-1.56319e-13
-1.27898e-13
-5.68434e-14
-5.68434e-14
-7.10543e-14
-2.84217e-14
1.42109e-14
1.42109e-14
-1.42109e-14
-2.84217e-14
5.68434e-14
-1.42109e-14
-1.42109e-14
1.42109e-14
-2.84217e-14
-2.84217e-14
0
0
0
1.42109e-14
2.84217e-14
0
-4.26326e-14
0
2.84217e-14
2.84217e-14
4.26326e-14
1.13687e-13
9.9476e-14
7.10543e-14
-1.42109e-14
9.9476e-14
7.10543e-14
4.26326e-14
0
4.26326e-14
5.68434e-14
1.42109e-14
0
-1.42109e-14
-2.84217e-14
-9.9476e-14
-8.52651e-14
-8.52651e-14
-8.52651e-14
-1.13687e-13
-1.13687e-13
0
-4.26326e-14
-5.68434e-14
-1.42109e-14
2.84217e-14
4.26326e-14
2.84217e-14
-1.42109e-14
-1.42109e-14
-2.84217e-14
0
0
2.84217e-14
7.10543e-14
0
5.68434e-14
0
-1.42109e-14
-2.84217e-14
-9.9476e-14
-7.10543e-14
-4.26326e-14
1.42109e-14
1.42109e-14
-2.84217e-14
0
2.84217e-14
0
-2.84217e-14
0
5.68434e-14
4.26326e-14
1.42109e-14
5.68434e-14
5.68434e-14
4.26326e-14
7.10543e-14
7.10543e-14
8.52651e-14
9.9476e-14
9.9476e-14
9.9476e-14
1.13687e-13
5.68434e-14
1.42109e-14
0
4.26326e-14
5.68434e-14
7.10543e-14
7.10543e-14
2.84217e-14
-1.42109e-14
-1.42109e-14
4.26326e-14
4.26326e-14
4.26326e-14
1.42109e-14
-2.84217e-14
0
4.26326e-14
2.84217e-14
1.42109e-14
1.42109e-14
1.42109e-14
-1.42109e-14
0
-1.42109e-14
1.42109e-14
0
-1.42109e-14
-2.84217e-14
-2.84217e-14
-2.84217e-14
1.42109e-14
1.42109e-14
4.26326e-14
-1.42109e-14
-1.42109e-14
0
1.42109e-14
1.42109e-14
-1.42109e-14
1.42109e-14
-1.42109e-14
1.42109e-14
0
0
0
0
-1.42109e-14
0
-1.42109e-14
1.42109e-14
0
-1.42109e-14
-2.84217e-14
-2.84217e-14
-2.84217e-14
1.42109e-14
1.42109e-14
4.26326e-14
-1.42109e-14
-1.42109e-14
0
1.42109e-14
1.42109e-14
-1.42109e-14
1.42109e-14
-1.42109e-14
1.42109e-14
0
0
0
0
-1.42109e-14
0
-1.42109e-14
1.42109e-14
0
-1.42109e-14
-1.42109e-14
0
1.42109e-14
1.42109e-14
0
0
-1.42109e-14
-1.42109e-14
0
1.42109e-14
1.42109e-14
0
1.42109e-14
1.42109e-14
0
0
0
-1.42109e-14
0
-1.42109e-14
4.26326e-14
0
0
0
-1.42109e-14
-1.42109e-14
0
1.42109e-14
1.42109e-14
0
0
-1.42109e-14
-1.42109e-14
0
1.42109e-14
1.42109e-14
0
1.42109e-14
1.42109e-14
0
0
0
-2.84217e-14
1.42109e-14
-1.42109e-14
-1.42109e-14
-5.68434e-14
-2.84217e-14
-2.84217e-14
-2.84217e-14
-1.42109e-14
-1.42109e-14
-2.84217e-14
-2.84217e-14
-2.84217e-14
1.42109e-14
4.26326e-14
-2.84217e-14
2.84217e-14
4.26326e-14
4.26326e-14
4.26326e-14
4.26326e-14
4.26326e-14
4.26326e-14
0
-2.84217e-14
-2.84217e-14
1.42109e-14
-1.42109e-14
-1.42109e-14
-7.10543e-14
-2.84217e-14
-2.84217e-14
-2.84217e-14
-2.84217e-14
-2.84217e-14
-2.84217e-14
-2.84217e-14
-2.84217e-14
1.42109e-14
4.26326e-14
-2.84217e-14
2.84217e-14
4.26326e-14
4.26326e-14
4.26326e-14
4.26326e-14
4.26326e-14
4.26326e-14
0
-2.84217e-14
-2.84217e-14
1.42109e-14
-1.42109e-14
-1.42109e-14
-7.10543e-14
-2.84217e-14
-2.84217e-14
-2.84217e-14
-2.84217e-14
-2.84217e-14
-2.84217e-14
-2.84217e-14
-2.84217e-14
1.42109e-14
4.26326e-14
-2.84217e-14
2.84217e-14
4.26326e-14
4.26326e-14
4.26326e-14
4.26326e-14
4.26326e-14
4.26326e-14
0
-2.84217e-14
-2.84217e-14
1.42109e-14
-1.42109e-14
-1.42109e-14
-7.10543e-14
-2.84217e-14
-2.84217e-14
-2.84217e-14
-2.84217e-14
-2.84217e-14
-2.84217e-14
-2.84217e-14
-2.84217e-14
-2.84217e-14
-2.84217e-14
0
-9.9476e-14
-1.56319e-13
-1.27898e-13
-1.42109e-13
-9.9476e-14
-1.13687e-13
2.84217e-14
7.10543e-14
-1.42109e-14
-5.68434e-14
1.42109e-14
7.10543e-14
5.68434e-14
1.56319e-13
2.13163e-13
1.84741e-13
8.52651e-14
8.52651e-14
1.13687e-13
4.26326e-14
0
-1.13687e-13
-1.13687e-13
-1.27898e-13
-1.56319e-13
-1.84741e-13
-2.70006e-13
-3.2685e-13
-3.83693e-13
-3.12639e-13
-4.54747e-13
-4.26326e-13
-3.55271e-13
-2.41585e-13
-1.27898e-13
-2.84217e-14
0
-2.84217e-14
1.42109e-14
1.42109e-13
2.84217e-13
3.41061e-13
3.69482e-13
3.83693e-13
2.55795e-13
2.55795e-13
1.42109e-13
1.56319e-13
9.9476e-14
2.84217e-14
-5.68434e-14
-1.13687e-13
-1.7053e-13
-3.12639e-13
-2.70006e-13
-3.97904e-13
-3.2685e-13
-2.98428e-13
-2.41585e-13
-1.13687e-13
-1.42109e-13
-2.84217e-14
-5.68434e-14
5.68434e-14
1.42109e-13
2.27374e-13
3.2685e-13
3.41061e-13
3.69482e-13
2.55795e-13
2.55795e-13
1.42109e-13
1.56319e-13
9.9476e-14
2.84217e-14
-5.68434e-14
-1.13687e-13
-1.7053e-13
-2.98428e-13
-2.70006e-13
-4.12115e-13
-3.69482e-13
-3.55271e-13
-2.98428e-13
-1.13687e-13
-4.26326e-14
2.84217e-14
7.10543e-14
1.13687e-13
1.42109e-13
2.98428e-13
4.26326e-13
4.40536e-13
4.68958e-13
3.55271e-13
4.26326e-13
3.12639e-13
2.98428e-13
2.41585e-13
)
;

boundaryField
{
    sides
    {
        type            calculated;
        value           nonuniform List<scalar> 2(2.27374e-13 4.54747e-13);
    }
    empty
    {
        type            empty;
    }
}


// ************************************************************************* //
