/*--------------------------------*- C++ -*----------------------------------*\
  =========                 |
  \\      /  F ield         | OpenFOAM: The Open Source CFD Toolbox
   \\    /   O peration     | Website:  https://openfoam.org
    \\  /    A nd           | Version:  13
     \\/     M anipulation  |
\*---------------------------------------------------------------------------*/
FoamFile
{
    format      ascii;
    class       volScalarField;
    location    "0.005";
    object      mag(U);
}
// * * * * * * * * * * * * * * * * * * * * * * * * * * * * * * * * * * * * * //

dimensions      [0 1 -1 0 0 0 0];

internalField   nonuniform List<scalar> 
1000
(
1.38828e-13
1.02326e-13
7.30748e-14
2.19518e-14
7.30635e-15
3.64781e-14
2.53709e-17
6.56689e-14
1.46385e-14
7.30389e-15
2.91957e-14
7.35123e-15
3.64825e-14
2.48506e-17
6.56715e-14
1.46463e-14
1.49699e-17
1.29941e-17
1.46157e-14
2.91938e-14
1.76053e-17
7.31884e-15
2.91942e-14
7.32092e-15
8.29165e-18
7.34132e-26
8.29174e-18
7.32092e-15
2.91967e-14
7.35175e-15
3.64814e-14
2.53681e-17
6.56689e-14
1.46385e-14
7.30389e-15
2.91957e-14
7.35123e-15
3.64825e-14
2.48506e-17
6.56715e-14
1.46464e-14
3.65601e-14
1.46167e-13
2.26582e-13
4.45885e-13
5.40845e-13
4.97021e-13
6.28529e-13
7.82059e-13
6.35882e-13
4.09302e-13
2.63119e-13
2.77732e-13
3.58175e-13
4.38495e-13
4.60527e-13
6.0666e-13
6.13843e-13
5.84733e-13
5.55502e-13
7.7477e-13
7.674e-13
8.11346e-13
8.6247e-13
9.57373e-13
9.06329e-13
7.89395e-13
7.30874e-13
5.40881e-13
5.70126e-13
4.82369e-13
4.23951e-13
5.04266e-13
4.09291e-13
3.58148e-13
3.87386e-13
3.2887e-13
2.19285e-13
3.58177e-13
4.53113e-13
5.2634e-13
7.60117e-13
8.69641e-13
7.6015e-13
6.4323e-13
7.82065e-13
9.13597e-13
9.79458e-13
1.04513e-12
9.72012e-13
8.55175e-13
6.79745e-13
4.82365e-13
3.65494e-13
4.02024e-13
4.09278e-13
3.87418e-13
4.96992e-13
5.40743e-13
4.31238e-13
3.5098e-13
3.65382e-13
2.77754e-13
1.38849e-13
1.46153e-13
3.143e-13
2.55825e-13
2.70375e-13
2.70436e-13
1.46198e-13
4.38876e-14
5.84317e-14
2.92544e-14
1.60656e-13
4.38609e-14
1.7532e-13
1.16991e-13
1.75402e-13
1.82702e-13
2.41182e-13
1.09623e-13
5.11136e-14
7.28076e-15
2.18889e-14
5.12591e-14
1.60689e-13
2.63149e-13
3.72748e-13
3.21509e-13
1.16955e-13
1.46537e-14
3.6511e-14
4.38385e-14
2.92823e-14
1.16903e-13
2.63112e-13
2.70516e-13
4.23912e-13
5.26158e-13
5.26218e-13
4.24005e-13
4.82304e-13
4.02042e-13
4.09264e-13
2.63253e-13
4.31186e-13
4.96906e-13
4.09306e-13
3.65503e-13
3.94521e-13
2.12109e-13
1.97348e-13
2.04623e-13
1.31633e-13
1.46178e-13
1.60633e-13
1.45226e-14
2.19338e-14
2.19082e-14
7.30096e-15
2.92005e-14
1.022e-13
1.45904e-14
1.09535e-13
9.50372e-14
1.31543e-13
7.31416e-14
1.24181e-13
8.04056e-14
2.19983e-14
7.30902e-14
1.5342e-13
1.31551e-13
9.51173e-14
2.19073e-13
7.31381e-14
1.45678e-14
7.30338e-14
6.62632e-17
1.46156e-13
2.2637e-13
3.08264e-18
1.53453e-13
2.99612e-13
3.80076e-13
4.45809e-13
4.96937e-13
4.23899e-13
3.21694e-13
3.72745e-13
3.50814e-13
3.50831e-13
3.14327e-13
1.68093e-13
2.91012e-14
9.50079e-14
1.31459e-13
1.09676e-13
1.38853e-13
1.97215e-13
1.45444e-14
7.34255e-15
4.3868e-14
1.46061e-13
1.69316e-17
2.04555e-13
1.974e-13
2.63066e-13
3.65437e-13
4.53131e-13
4.4587e-13
4.82475e-13
6.4321e-13
7.81933e-13
8.69781e-13
8.55165e-13
8.55129e-13
8.91687e-13
8.62473e-13
8.2602e-13
1.16207e-12
1.06705e-12
1.07443e-12
1.19142e-12
1.27159e-12
1.19873e-12
1.11826e-12
1.21334e-12
1.23529e-12
1.38864e-12
1.5202e-12
1.51295e-12
1.39608e-12
1.25714e-12
1.38863e-12
1.34485e-12
1.34486e-12
1.38139e-12
1.35949e-12
1.38133e-12
1.37409e-12
1.43257e-12
1.52023e-12
1.33026e-12
1.24254e-12
1.28629e-12
1.18408e-12
1.32289e-12
1.10369e-12
1.00857e-12
9.42931e-13
1.03057e-12
9.93986e-13
8.40556e-13
7.747e-13
6.94376e-13
6.72394e-13
5.55469e-13
2.77762e-13
2.63114e-13
1.09632e-12
3.82262e-12
8.77815e-12
2.06771e-11
4.49356e-11
1.00089e-10
2.17135e-10
4.72182e-10
1.01334e-09
2.16868e-09
4.60329e-09
9.71454e-09
2.03468e-08
4.23281e-08
8.73936e-08
1.79118e-07
3.64286e-07
7.35112e-07
1.47153e-06
2.92152e-06
5.75144e-06
1.12246e-05
2.17111e-05
4.16096e-05
7.89908e-05
0.000148488
0.000276302
0.000508728
0.000926424
0.00166781
0.00296658
0.00521039
0.00902981
0.0154282
0.0259626
0.0429793
0.0698916
0.111459
0.17398
0.265293
0.394473
0.571215
0.805017
1.10436
1.47607
1.92497
2.45373
3.06306
3.75191
4.51786
5.3574
6.26632
7.23996
8.27349
9.36203
10.5008
11.6854
12.9115
14.1751
15.4727
16.8009
18.1568
19.5376
20.941
22.3647
23.8069
25.2656
26.7395
28.2271
29.7272
31.2386
32.7603
34.2915
35.8313
37.379
38.9339
40.4956
42.0633
43.6367
45.2153
46.7988
48.3866
49.9786
51.5744
53.1737
54.7763
56.3819
57.9903
59.6013
61.2148
62.8305
64.4483
66.068
67.6894
69.3125
70.9371
72.563
74.1902
75.8184
77.4477
79.0778
80.7086
82.3401
83.9721
85.6044
87.2369
88.8696
90.5021
92.1344
93.7663
95.3976
97.028
98.6573
100.285
101.911
103.536
105.157
106.776
108.391
110.002
111.607
113.206
114.798
116.38
117.951
119.509
121.05
122.571
124.066
125.531
126.958
128.338
129.661
130.916
132.09
133.171
134.147
135.009
135.751
136.371
136.874
137.268
137.565
137.782
137.934
138.035
138.099
138.138
138.16
138.172
138.18
138.189
138.203
138.225
138.263
138.328
138.437
138.618
138.906
139.341
139.96
140.783
141.811
143.024
144.394
145.891
147.488
149.162
150.897
152.679
154.498
156.347
158.219
160.11
162.017
163.936
165.866
167.805
169.752
171.704
173.662
175.625
177.592
179.562
181.535
183.511
185.489
187.469
189.452
191.435
193.421
195.408
197.396
199.385
201.375
203.367
205.359
207.352
209.346
211.34
213.335
215.331
217.328
219.325
221.322
223.32
225.319
227.318
229.317
231.317
233.317
235.318
237.319
239.32
241.321
243.323
245.324
247.326
249.327
251.329
253.33
255.331
257.331
259.331
261.33
263.328
265.324
267.319
269.311
271.302
273.289
275.272
277.25
279.223
281.189
283.146
285.093
287.026
288.942
290.838
292.711
294.553
296.358
298.103
299.765
301.319
302.735
303.984
305.042
305.893
306.54
306.999
307.301
307.482
307.58
307.625
307.643
307.648
307.648
307.649
307.649
307.649
307.65
307.651
307.652
307.653
307.654
307.653
307.651
307.648
307.645
307.643
307.641
307.639
307.638
307.638
307.637
307.637
307.636
307.636
307.636
307.637
307.637
307.637
307.637
307.637
307.638
307.638
307.638
307.638
307.638
307.639
307.639
307.639
307.639
307.639
307.64
307.64
307.64
307.64
307.64
307.64
307.64
307.64
307.64
307.64
307.64
307.64
307.64
307.64
307.64
307.64
307.64
307.641
307.641
307.641
307.641
307.641
307.641
307.641
307.641
307.641
307.641
307.641
307.641
307.641
307.641
307.641
307.641
307.641
307.641
307.641
307.641
307.641
307.641
307.641
307.641
307.641
307.641
307.641
307.641
307.641
307.641
307.641
307.641
307.641
307.641
307.641
307.641
307.641
307.641
307.641
307.64
307.64
307.64
307.64
307.64
307.64
307.64
307.64
307.64
307.64
307.64
307.64
307.64
307.64
307.64
307.64
307.64
307.64
307.64
307.64
307.639
307.639
307.639
307.639
307.639
307.639
307.639
307.639
307.639
307.639
307.639
307.64
307.641
307.642
307.643
307.646
307.649
307.653
307.658
307.663
307.669
307.673
307.676
307.677
307.674
307.669
307.662
307.655
307.648
307.643
307.64
307.639
307.638
307.638
307.637
307.638
307.638
307.637
307.637
307.637
307.637
307.637
307.637
307.637
307.636
307.636
307.636
307.636
307.636
307.636
307.636
307.636
307.635
307.635
307.635
307.635
307.635
307.635
307.635
307.635
307.634
307.634
307.634
307.634
307.634
307.634
307.633
307.633
307.633
307.633
307.633
307.633
307.632
307.632
307.632
307.632
307.632
307.632
307.631
307.631
307.631
307.631
307.631
307.63
307.63
307.63
307.63
307.63
307.629
307.629
307.629
307.629
307.629
307.628
307.628
307.628
307.628
307.627
307.627
307.627
307.627
307.626
307.626
307.626
307.625
307.625
307.625
307.625
307.624
307.624
307.624
307.623
307.623
307.623
307.622
307.622
307.622
307.621
307.621
307.62
307.62
307.62
307.619
307.619
307.618
307.618
307.618
307.617
307.617
307.616
307.616
307.615
307.615
307.614
307.614
307.612
307.613
307.61
307.612
307.606
307.612
307.599
307.61
307.581
307.598
307.528
307.541
307.359
307.297
306.842
306.242
305.126
301.698
298.153
283.812
267.895
216.269
132.564
32.5384
5.72813
0.945801
0.154508
0.0251981
0.00410766
0.000669588
0.000109149
1.77925e-05
2.90037e-06
4.72792e-07
7.70704e-08
1.25632e-08
2.04821e-09
3.33986e-10
5.4347e-11
9.03483e-12
1.38154e-12
2.77613e-13
2.19019e-14
5.07478e-14
1.4999e-14
4.38978e-14
7.25648e-14
1.52562e-14
7.24901e-14
2.24894e-14
7.25202e-14
2.23808e-14
5.08752e-14
2.94873e-14
5.08361e-14
2.18892e-14
2.15917e-14
6.94184e-15
2.90329e-14
3.68652e-14
1.01672e-13
5.17421e-14
1.09083e-13
6.61724e-14
1.01841e-13
5.10032e-14
2.16639e-14
5.08388e-14
3.64636e-14
1.4603e-14
2.83527e-14
8.66744e-14
4.42607e-14
4.36981e-14
2.94576e-14
5.09043e-14
2.94927e-14
5.09077e-14
2.94891e-14
5.08362e-14
2.18865e-14
2.88962e-14
6.94742e-15
2.17621e-14
3.64065e-14
2.88849e-14
2.95185e-14
1.492e-14
2.89606e-14
3.70089e-14
2.93796e-14
2.34893e-16
9.471e-14
7.30345e-14
1.9e-13
2.8586e-13
3.64497e-13
5.12026e-13
4.52997e-13
4.16798e-13
5.18809e-13
8.11491e-13
1.14725e-12
1.19159e-12
1.29346e-12
1.49088e-12
1.58642e-12
1.52732e-12
1.67387e-12
1.66635e-12
1.44017e-12
1.38107e-12
1.4401e-12
1.51993e-12
1.52068e-12
1.49836e-12
1.60051e-12
1.56416e-12
1.58608e-12
1.46168e-12
1.41129e-12
1.37339e-12
1.36693e-12
1.40317e-12
1.43271e-12
1.55681e-12
1.6811e-12
1.71708e-12
1.68858e-12
1.7179e-12
1.64447e-12
1.49821e-12
1.54262e-12
1.71748e-12
1.96637e-12
1.93714e-12
2.22049e-12
2.36875e-12
2.3386e-12
2.27251e-12
1.94528e-12
2.02467e-12
2.15579e-12
2.26435e-12
2.0187e-12
2.16322e-12
2.075e-12
1.85053e-12
2.03212e-12
2.1188e-12
2.03904e-12
1.93078e-12
2.11805e-12
2.14189e-12
2.29524e-12
2.26497e-12
2.01007e-12
1.92286e-12
1.89999e-12
1.6594e-12
1.57254e-12
1.66485e-12
1.5721e-12
1.64474e-12
1.7747e-12
1.51339e-12
1.28607e-12
1.17617e-12
8.77264e-13
5.7165e-13
7.74068e-13
7.30597e-13
6.80298e-13
7.00891e-13
6.2134e-13
4.82701e-13
3.8905e-13
6.85658e-13
6.21847e-13
5.6986e-13
3.71567e-13
1.17707e-13
5.86167e-14
4.16534e-13
5.99193e-13
6.56624e-13
3.81213e-13
4.82238e-13
6.86727e-13
7.61567e-13
1.01542e-12
1.19879e-12
1.35933e-12
1.56496e-12
1.6944e-12
1.67341e-12
1.94507e-12
2.15591e-12
2.03224e-12
1.98744e-12
2.00217e-12
1.79739e-12
1.40433e-12
1.3226e-12
1.23528e-12
1.10418e-12
1.24923e-12
1.40317e-12
1.57895e-12
1.64457e-12
1.8481e-12
1.72674e-12
1.92124e-12
1.82676e-12
1.63176e-12
1.88528e-12
2.00979e-12
1.92331e-12
2.19235e-12
2.5052e-12
2.25889e-12
2.09794e-12
2.09757e-12
1.93808e-12
2.22903e-12
2.50641e-12
2.41742e-12
2.01893e-12
2.03867e-12
1.85697e-12
1.9449e-12
2.19118e-12
2.07627e-12
)
;

boundaryField
{
    sides
    {
        type            calculated;
        value           nonuniform List<scalar> 2(2.07627e-12 1.38828e-13);
    }
    empty
    {
        type            empty;
    }
}


// ************************************************************************* //
