/*--------------------------------*- C++ -*----------------------------------*\
  =========                 |
  \\      /  F ield         | OpenFOAM: The Open Source CFD Toolbox
   \\    /   O peration     | Website:  https://openfoam.org
    \\  /    A nd           | Version:  13
     \\/     M anipulation  |
\*---------------------------------------------------------------------------*/
FoamFile
{
    format      ascii;
    class       volScalarField;
    location    "0.005";
    object      p;
}
// * * * * * * * * * * * * * * * * * * * * * * * * * * * * * * * * * * * * * //

dimensions      [1 -1 -2 0 0 0 0];

internalField   nonuniform List<scalar> 
1000
(
100000
100000
100000
100000
100000
100000
100000
100000
100000
100000
100000
100000
100000
100000
100000
100000
100000
100000
100000
100000
100000
100000
100000
100000
100000
100000
100000
100000
100000
100000
100000
100000
100000
100000
100000
100000
100000
100000
100000
100000
100000
100000
100000
100000
100000
100000
100000
100000
100000
100000
100000
100000
100000
100000
100000
100000
100000
100000
100000
100000
100000
100000
100000
100000
100000
100000
100000
100000
100000
100000
100000
100000
100000
100000
100000
100000
100000
100000
100000
100000
100000
100000
100000
100000
100000
100000
100000
100000
100000
100000
100000
100000
100000
100000
100000
100000
100000
100000
100000
100000
100000
100000
100000
100000
100000
100000
100000
100000
100000
100000
100000
100000
100000
100000
100000
100000
100000
100000
100000
100000
100000
100000
100000
100000
100000
100000
100000
100000
100000
100000
100000
100000
100000
100000
100000
100000
100000
100000
100000
100000
100000
100000
100000
100000
100000
100000
100000
100000
100000
100000
100000
100000
100000
100000
100000
100000
100000
100000
100000
100000
100000
100000
100000
100000
100000
100000
100000
100000
100000
100000
100000
100000
100000
100000
100000
100000
100000
100000
100000
100000
100000
100000
100000
100000
100000
100000
100000
100000
100000
100000
100000
100000
100000
100000
100000
100000
100000
100000
100000
100000
100000
100000
100000
100000
100000
100000
100000
100000
100000
100000
100000
100000
100000
100000
100000
100000
100000
100000
100000
100000
100000
100000
100000
100000
100000
100000
100000
100000
100000
100000
100000
100000
100000
100000
100000
100000
100000
100000
100000
100000
100000
100000
100000
100000
100000
100000
100000
100000
100000
100000
100000
100000
100000
100000
100000
100000
100000
100000
100000
100000
100000
100000
100000
100000
100000
100000
100000
100000
100000
100000
100000
100000
100000
100000
100000
100000
100000
100000
100000
100000
100000
100000
100000
100000
100000
99999.9
99999.9
99999.8
99999.7
99999.4
99998.9
99998.1
99996.6
99994.2
99990.3
99984
99973.9
99958.4
99935.1
99901
99852.8
99786.9
99699.8
99588.4
99450.2
99283.5
99087.5
98862
98607.6
98325.4
98016.9
97683.8
97328.1
96951.7
96556.6
96144.8
95718
95278
94826.3
94364.4
93893.5
93415
92929.8
92438.9
91943.1
91443.3
90940
90434
89925.7
89415.6
88904.2
88391.8
87878.8
87365.5
86852.1
86339
85826.2
85314.1
84802.8
84292.4
83783.1
83275
82768.3
82263
81759.3
81257.2
80756.7
80258.1
79761.3
79266.4
78773.4
78282.5
77793.6
77306.8
76822.1
76339.6
75859.3
75381.2
74905.4
74431.8
73960.6
73491.8
73025.3
72561.2
72099.5
71640.3
71183.6
70729.4
70277.8
69828.8
69382.4
68938.6
68497.6
68059.4
67624.1
67191.6
66762.3
66336
65913.1
65493.6
65077.7
64665.8
64258
63854.7
63456.4
63063.7
62677.2
62297.8
61926.6
61564.9
61214.4
60876.9
60554.9
60250.8
59967.5
59707.6
59473.8
59268
59091.4
58944.1
58824.9
58731.6
58661.2
58610
58574.2
58550.4
58535.2
58526.1
58520.9
58518
58516.3
58514.4
58511.7
58507.2
58499.6
58486.7
58464.9
58428.9
58371.6
58285.2
58162.4
57999.4
57796.7
57558.3
57290.3
56999
56689.8
56367.4
56035.3
55696.2
55352.1
55004.6
54655
54304
53952.4
53600.8
53249.6
52899.1
52549.5
52201.2
51854.2
51508.7
51164.8
50822.6
50482.1
50143.5
49806.8
49471.9
49139
48808.1
48479.1
48152.1
47827.1
47504.2
47183.2
46864.3
46547.3
46232.4
45919.5
45608.6
45299.7
44992.8
44687.8
44384.9
44083.9
43784.9
43487.9
43192.7
42899.6
42608.4
42319
42031.7
41746.2
41462.6
41180.9
40901.1
40623.2
40347.2
40073.1
39800.8
39530.4
39261.9
38995.3
38730.6
38467.8
38207
37948
37691.1
37436.1
37183.2
36932.4
36683.8
36437.4
36193.4
35951.8
35713
35477
35244.2
35015
34789.5
34568.5
34351.9
34141.3
33939
33747.5
33569.4
33407.9
33266
33146.5
33050.5
32977.7
32926.2
32892.3
32872
32861.1
32856
32854.1
32853.5
32853.4
32853.4
32853.3
32853.3
32853.2
32853
32852.9
32852.8
32852.7
32852.8
32853.1
32853.5
32853.8
32854.1
32854.3
32854.5
32854.6
32854.7
32854.8
32854.8
32854.8
32854.8
32854.8
32854.7
32854.7
32854.7
32854.6
32854.6
32854.5
32854.5
32854.4
32854.4
32854.4
32854.3
32854.3
32854.2
32854.2
32854.2
32854.1
32854.1
32854.1
32854.1
32854
32854
32854
32854
32853.9
32853.9
32853.9
32853.9
32853.9
32853.8
32853.8
32853.8
32853.8
32853.8
32853.7
32853.7
32853.7
32853.7
32853.7
32853.6
32853.6
32853.6
32853.6
32853.6
32853.5
32853.5
32853.5
32853.5
32853.5
32853.5
32853.4
32853.4
32853.4
32853.4
32853.4
32853.4
32853.3
32853.3
32853.3
32853.3
32853.3
32853.3
32853.2
32853.2
32853.2
32853.2
32853.2
32853.2
32853.1
32853.1
32853.1
32853.1
32853.1
32853.1
32853
32853
32853
32853
32853
32853
32853
32852.9
32852.9
32852.9
32852.9
32852.9
32852.9
32852.8
32852.8
32852.8
32852.8
32852.8
32852.8
32852.7
32852.7
32852.7
32852.7
32852.7
32852.7
32852.7
32852.7
32852.7
32852.7
32852.7
32852.8
32853
32853.2
32853.5
32854
32854.6
32855.3
32856
32856.8
32857.5
32858
32858.1
32857.9
32857.2
32856.2
32855.1
32854.1
32853.3
32852.8
32852.5
32852.4
32852.4
32852.3
32852.3
32852.3
32852.3
32852.3
32852.3
32852.2
32852.2
32852.2
32852.2
32852.2
32852.2
32852.1
32852.1
32852.1
32852.1
32852.1
32852.1
32852
32852
32852
32852
32852
32852
32851.9
32851.9
32851.9
32851.9
32851.9
32851.9
32851.8
32851.8
32851.8
32851.8
32851.8
32851.7
32851.7
32851.7
32851.7
32851.7
32851.6
32851.6
32851.6
32851.6
32851.6
32851.5
32851.5
32851.5
32851.5
32851.4
32851.4
32851.4
32851.4
32851.3
32851.3
32851.3
32851.3
32851.2
32851.2
32851.2
32851.2
32851.1
32851.1
32851.1
32851
32851
32851
32850.9
32850.9
32850.9
32850.8
32850.8
32850.8
32850.7
32850.7
32850.7
32850.6
32850.6
32850.6
32850.5
32850.5
32850.4
32850.4
32850.4
32850.3
32850.3
32850.2
32850.2
32850.1
32850.1
32850
32850
32849.9
32849.9
32849.8
32849.8
32849.7
32849.7
32849.6
32849.6
32849.4
32849.5
32849.2
32849.4
32848.9
32849.3
32848.3
32849.5
32846.8
32849.7
32842.5
32849.1
32829.5
32843
32789.3
32805.3
32658.3
32622.4
32157.4
31862.6
30270.6
28739
23970.8
17680.4
12188.1
10975.6
10767.5
10733.3
10727.7
10726.8
10726.6
10726.6
10726.6
10726.6
10726.6
10726.6
10726.6
10726.6
10726.6
10726.6
10726.6
10726.6
10726.6
10726.6
10726.6
10726.6
10726.6
10726.6
10726.6
10726.6
10726.6
10726.6
10726.6
10726.6
10726.6
10726.6
10726.6
10726.6
10726.6
10726.6
10726.6
10726.6
10726.6
10726.6
10726.6
10726.6
10726.6
10726.6
10726.6
10726.6
10726.6
10726.6
10726.6
10726.6
10726.6
10726.6
10726.6
10726.6
10726.6
10726.6
10726.6
10726.6
10726.6
10726.6
10726.6
10726.6
10726.6
10726.6
10726.6
10726.6
10726.6
10726.6
10726.6
10726.6
10726.6
10726.6
10726.6
10726.6
10726.6
10726.6
10726.6
10726.6
10726.6
10726.6
10726.6
10726.6
10726.6
10726.6
10726.6
10726.6
10726.6
10726.6
10726.6
10726.6
10726.6
10726.6
10726.6
10726.6
10726.6
10726.6
10726.6
10726.6
10726.6
10726.6
10726.6
10726.6
10726.6
10726.6
10726.6
10726.6
10726.6
10726.6
10726.6
10726.6
10726.6
10726.6
10726.6
10726.6
10726.6
10726.6
10726.6
10726.6
10726.6
10726.6
10726.6
10726.6
10726.6
10726.6
10726.6
10726.6
10726.6
10726.6
10726.6
10726.6
10726.6
10726.6
10726.6
10726.6
10726.6
10726.6
10726.6
10726.6
10726.6
10726.6
10726.6
10726.6
10726.6
10726.6
10726.6
10726.6
10726.6
10726.6
10726.6
10726.6
10726.6
10726.6
10726.6
10726.6
10726.6
10726.6
10726.6
10726.6
10726.6
10726.6
10726.6
10726.6
10726.6
10726.6
10726.6
10726.6
10726.6
10726.6
10726.6
10726.6
10726.6
10726.6
10726.6
10726.6
10726.6
10726.6
10726.6
10726.6
10726.6
10726.6
10726.6
10726.6
10726.6
10726.6
10726.6
10726.6
10726.6
10726.6
10726.6
10726.6
10726.6
10726.6
10726.6
10726.6
10726.6
10726.6
10726.6
10726.6
10726.6
10726.6
10726.6
10726.6
10726.6
10726.6
10726.6
10726.6
10726.6
10726.6
10726.6
10726.6
)
;

boundaryField
{
    sides
    {
        type            zeroGradient;
    }
    empty
    {
        type            empty;
    }
}


// ************************************************************************* //
