/*--------------------------------*- C++ -*----------------------------------*\
  =========                 |
  \\      /  F ield         | OpenFOAM: The Open Source CFD Toolbox
   \\    /   O peration     | Website:  https://openfoam.org
    \\  /    A nd           | Version:  13
     \\/     M anipulation  |
\*---------------------------------------------------------------------------*/
FoamFile
{
    format      ascii;
    class       surfaceScalarField;
    location    "0.005";
    object      phi;
}
// * * * * * * * * * * * * * * * * * * * * * * * * * * * * * * * * * * * * * //

dimensions      [1 0 -1 0 0 0 0];

internalField   nonuniform List<scalar> 
999
(
-4.54747e-13
-4.54747e-13
-2.27374e-13
0
1.13687e-13
1.13687e-13
-1.13687e-13
-1.13687e-13
0
1.13687e-13
1.13687e-13
1.13687e-13
1.13687e-13
-2.27374e-13
-2.27374e-13
0
0
0
2.27374e-13
1.13687e-13
0
-1.13687e-13
-1.13687e-13
0
0
0
0
1.13687e-13
1.13687e-13
1.13687e-13
1.13687e-13
-1.13687e-13
-1.13687e-13
0
1.13687e-13
1.13687e-13
1.13687e-13
1.13687e-13
-2.27374e-13
-1.13687e-13
0
-3.41061e-13
-6.82121e-13
-1.02318e-12
-2.38742e-12
-2.04636e-12
-2.16005e-12
-2.95586e-12
-2.95586e-12
-2.04636e-12
-1.25056e-12
-1.25056e-12
-1.13687e-12
-1.59162e-12
-1.7053e-12
-2.16005e-12
-2.6148e-12
-2.38742e-12
-2.16005e-12
-2.27374e-12
-3.41061e-12
-3.06954e-12
-3.75167e-12
-3.41061e-12
-3.75167e-12
-3.18323e-12
-2.95586e-12
-2.38742e-12
-2.16005e-12
-2.04636e-12
-1.59162e-12
-1.81899e-12
-1.81899e-12
-1.36424e-12
-1.47793e-12
-1.47793e-12
-1.02318e-12
-1.02318e-12
-1.47793e-12
-1.7053e-12
-2.38742e-12
-3.41061e-12
-3.18323e-12
-2.84217e-12
-2.50111e-12
-3.52429e-12
-3.75167e-12
-3.97904e-12
-3.63798e-12
-3.52429e-12
-3.06954e-12
-2.27374e-12
-1.7053e-12
-1.47793e-12
-1.93268e-12
-1.25056e-12
-1.81899e-12
-2.38742e-12
-1.81899e-12
-1.7053e-12
-1.13687e-12
-1.7053e-12
-4.54747e-13
-5.68434e-13
-1.02318e-12
-1.13687e-12
-1.02318e-12
-1.25056e-12
-9.09495e-13
-6.82121e-13
4.54747e-13
1.13687e-13
-5.68434e-13
-4.54747e-13
4.54747e-13
2.27374e-13
9.09495e-13
5.68434e-13
7.95808e-13
7.95808e-13
0
-3.41061e-13
2.27374e-13
0
3.41061e-13
9.09495e-13
1.25056e-12
1.7053e-12
9.09495e-13
2.27374e-13
-2.27374e-13
0
-3.41061e-13
1.13687e-13
-1.13687e-12
-9.09495e-13
-1.25056e-12
-1.93268e-12
-2.38742e-12
-1.7053e-12
-2.04636e-12
-1.47793e-12
-1.93268e-12
-1.13687e-12
-1.25056e-12
-1.93268e-12
-1.81899e-12
-1.47793e-12
-1.47793e-12
-1.13687e-12
-5.68434e-13
-1.13687e-12
-2.27374e-13
-4.54747e-13
-4.54747e-13
-4.54747e-13
2.27374e-13
-2.27374e-13
2.27374e-13
-4.54747e-13
2.27374e-13
2.27374e-13
-2.27374e-13
-5.68434e-13
-3.41061e-13
-4.54747e-13
-2.27374e-13
-5.68434e-13
-1.13687e-13
-1.13687e-13
-4.54747e-13
-6.82121e-13
-4.54747e-13
-7.95808e-13
-5.68434e-13
0
2.27374e-13
2.27374e-13
-3.41061e-13
-7.95808e-13
-6.82121e-13
3.41061e-13
5.68434e-13
1.7053e-12
1.25056e-12
2.27374e-12
1.93268e-12
1.47793e-12
1.02318e-12
1.59162e-12
1.02318e-12
1.59162e-12
6.82121e-13
6.82121e-13
-4.54747e-13
-2.27374e-13
-6.82121e-13
-2.27374e-13
-9.09495e-13
-3.41061e-13
3.41061e-13
-3.41061e-13
6.82121e-13
1.13687e-13
-2.27374e-13
-1.13687e-12
-6.82121e-13
-1.47793e-12
-1.36424e-12
-2.04636e-12
-1.47793e-12
-2.38742e-12
-2.50111e-12
-3.63798e-12
-3.06954e-12
-3.63798e-12
-3.18323e-12
-3.75167e-12
-3.06954e-12
-4.09273e-12
-4.43379e-12
-4.3201e-12
-4.77485e-12
-4.77485e-12
-5.00222e-12
-4.54747e-12
-4.77485e-12
-4.88853e-12
-5.11591e-12
-5.79803e-12
-6.13909e-12
-5.91172e-12
-5.22959e-12
-4.77485e-12
-5.68434e-12
-5.11591e-12
-5.79803e-12
-5.45697e-12
-5.34328e-12
-5.45697e-12
-5.68434e-12
-5.79803e-12
-6.0254e-12
-4.77485e-12
-5.34328e-12
-5.00222e-12
-5.00222e-12
-4.88853e-12
-4.09273e-12
-3.86535e-12
-3.63798e-12
-4.3201e-12
-3.52429e-12
-3.29692e-12
-2.84217e-12
-2.72848e-12
-2.6148e-12
-1.93268e-12
-1.13687e-13
2.27374e-12
8.6402e-12
2.26237e-11
5.25233e-11
1.18234e-10
2.61139e-10
5.73323e-10
1.24533e-09
2.68824e-09
5.76279e-09
1.22791e-08
2.59897e-08
5.46336e-08
1.14041e-07
2.36332e-07
4.86157e-07
9.9255e-07
2.01079e-06
4.0415e-06
8.05739e-06
1.59305e-05
3.12288e-05
6.06823e-05
0.000116853
0.00022293
0.000421223
0.000788001
0.00145899
0.00267249
0.00484082
0.00866643
0.0153261
0.0267551
0.0460717
0.0781853
0.130621
0.214553
0.345958
0.546631
0.844668
1.27391
1.87207
2.67762
3.72634
5.04808
6.66468
8.58903
10.8252
13.3694
16.2112
19.3351
22.7223
26.3514
30.2002
34.2463
38.4676
42.8433
47.3535
51.9801
56.7061
61.5163
66.397
71.3358
76.3215
81.3442
86.3952
91.4664
96.551
101.643
106.736
111.826
116.909
121.98
127.036
132.075
137.093
142.088
147.057
152
156.914
161.797
166.649
171.469
176.254
181.005
185.719
190.398
195.039
199.643
204.208
208.735
213.222
217.67
222.078
226.446
230.774
235.061
239.307
243.512
247.676
251.799
255.88
259.92
263.918
267.874
271.789
275.661
279.491
283.28
287.025
290.729
294.389
298.007
301.581
305.112
308.599
312.042
315.44
318.792
322.097
325.355
328.563
331.722
334.827
337.877
340.869
343.798
346.659
349.446
352.152
354.765
357.276
359.669
361.929
364.039
365.98
367.736
369.291
370.637
371.771
372.699
373.435
373.997
374.412
374.706
374.905
375.034
375.113
375.158
375.181
375.195
375.207
375.223
375.248
375.289
375.36
375.48
375.681
376.008
376.513
377.254
378.269
379.567
381.125
382.901
384.844
386.908
389.054
391.25
393.475
395.711
397.944
400.165
402.366
404.543
406.689
408.804
410.884
412.927
414.932
416.898
418.825
420.712
422.558
424.364
426.129
427.854
429.538
431.182
432.786
434.35
435.874
437.359
438.805
440.212
441.581
442.912
444.205
445.461
446.68
447.863
449.009
450.12
451.196
452.236
453.242
454.214
455.151
456.056
456.927
457.766
458.572
459.347
460.089
460.801
461.482
462.132
462.752
463.343
463.904
464.436
464.939
465.414
465.861
466.28
466.672
467.037
467.375
467.687
467.973
468.234
468.469
468.679
468.865
469.027
469.165
469.28
469.373
469.443
469.492
469.521
469.53
469.52
469.494
469.453
469.401
469.34
469.276
469.214
469.157
469.109
469.071
469.044
469.027
469.016
469.01
469.007
469.006
469.005
469.005
469.005
469.005
469.005
469.004
469.004
469.004
469.004
469.003
469.003
469.002
469.001
469.001
469
469
468.999
468.999
468.998
468.998
468.998
468.998
468.997
468.997
468.997
468.996
468.996
468.996
468.995
468.995
468.994
468.994
468.994
468.993
468.993
468.992
468.992
468.992
468.991
468.991
468.99
468.99
468.99
468.989
468.989
468.988
468.988
468.988
468.987
468.987
468.986
468.986
468.985
468.985
468.984
468.984
468.983
468.983
468.982
468.981
468.981
468.98
468.98
468.979
468.978
468.978
468.977
468.976
468.976
468.975
468.974
468.974
468.973
468.972
468.971
468.971
468.97
468.969
468.968
468.968
468.967
468.966
468.965
468.964
468.963
468.962
468.961
468.96
468.959
468.958
468.957
468.956
468.955
468.954
468.953
468.952
468.951
468.95
468.949
468.948
468.947
468.945
468.944
468.943
468.942
468.94
468.938
468.936
468.933
468.929
468.924
468.916
468.904
468.886
468.859
468.818
468.756
468.664
468.528
468.33
468.044
467.638
467.068
466.282
465.211
463.778
461.891
459.448
456.344
452.473
447.742
442.076
435.44
427.842
419.35
410.096
400.278
390.156
380.036
370.253
361.144
353.012
346.09
340.499
336.226
333.132
331
329.59
328.691
328.135
327.801
327.606
327.496
327.437
327.406
327.393
327.387
327.386
327.385
327.385
327.387
327.39
327.395
327.399
327.402
327.404
327.405
327.405
327.405
327.405
327.404
327.404
327.403
327.402
327.401
327.4
327.399
327.398
327.397
327.396
327.395
327.394
327.393
327.392
327.391
327.39
327.39
327.389
327.388
327.387
327.387
327.386
327.385
327.384
327.384
327.383
327.382
327.382
327.381
327.381
327.38
327.379
327.379
327.378
327.377
327.377
327.376
327.375
327.375
327.374
327.374
327.373
327.372
327.372
327.371
327.37
327.37
327.369
327.368
327.368
327.367
327.366
327.365
327.365
327.364
327.363
327.363
327.362
327.361
327.36
327.359
327.359
327.358
327.357
327.356
327.355
327.355
327.354
327.353
327.352
327.351
327.35
327.349
327.348
327.347
327.346
327.345
327.344
327.343
327.342
327.341
327.339
327.338
327.334
327.335
327.328
327.329
327.311
327.312
327.26
327.244
327.086
326.988
326.503
325.908
324.175
321.639
314.793
304.328
279.692
236.016
154.459
42.7963
7.79369
1.30954
0.215184
0.0351608
0.00573513
0.00093505
0.000152431
2.48482e-05
4.05055e-06
6.60286e-07
1.07634e-07
1.75455e-08
2.86013e-09
4.66343e-10
7.59997e-11
1.24345e-11
2.04636e-12
3.12639e-13
5.68434e-14
-2.84217e-14
1.42109e-14
-1.42109e-14
-1.42109e-14
-5.68434e-14
-2.84217e-14
-2.84217e-14
-2.84217e-14
-1.42109e-14
-1.42109e-14
-2.84217e-14
-2.84217e-14
-2.84217e-14
1.42109e-14
4.26326e-14
-2.84217e-14
2.84217e-14
4.26326e-14
4.26326e-14
4.26326e-14
4.26326e-14
4.26326e-14
4.26326e-14
0
-2.84217e-14
-2.84217e-14
1.42109e-14
0
0
-7.10543e-14
-2.84217e-14
-2.84217e-14
-2.84217e-14
-2.84217e-14
-2.84217e-14
-2.84217e-14
-2.84217e-14
-2.84217e-14
1.42109e-14
4.26326e-14
-2.84217e-14
0
0
1.42109e-14
1.42109e-14
0
-2.84217e-14
-2.84217e-14
1.42109e-14
-4.26326e-14
-4.26326e-14
-4.26326e-14
-1.13687e-13
-1.7053e-13
-2.41585e-13
-2.41585e-13
-2.13163e-13
-1.98952e-13
-3.41061e-13
-4.83169e-13
-6.25278e-13
-6.11067e-13
-6.53699e-13
-7.81597e-13
-8.2423e-13
-7.95808e-13
-8.3844e-13
-7.95808e-13
-6.53699e-13
-7.10543e-13
-6.82121e-13
-7.95808e-13
-7.10543e-13
-8.10019e-13
-7.81597e-13
-8.81073e-13
-7.53175e-13
-7.10543e-13
-6.82121e-13
-6.82121e-13
-6.53699e-13
-7.10543e-13
-7.38964e-13
-8.10019e-13
-8.10019e-13
-8.52651e-13
-8.52651e-13
-8.95284e-13
-7.24754e-13
-7.53175e-13
-7.95808e-13
-8.95284e-13
-9.80549e-13
-1.00897e-12
-1.15108e-12
-1.16529e-12
-1.16529e-12
-1.0516e-12
-9.9476e-13
-1.02318e-12
-1.10845e-12
-1.0516e-12
-1.0516e-12
-1.09424e-12
-9.52127e-13
-1.03739e-12
-1.00897e-12
-1.02318e-12
-9.80549e-13
-9.80549e-13
-1.08002e-12
-1.12266e-12
-1.16529e-12
-9.66338e-13
-9.66338e-13
-9.52127e-13
-8.95284e-13
-8.2423e-13
-8.2423e-13
-7.81597e-13
-8.10019e-13
-8.52651e-13
-7.81597e-13
-6.96332e-13
-5.82645e-13
-5.54223e-13
-3.83693e-13
-3.69482e-13
-3.69482e-13
-3.2685e-13
-3.41061e-13
-3.12639e-13
-2.70006e-13
-2.55795e-13
-2.84217e-13
-3.2685e-13
-2.70006e-13
-2.13163e-13
-7.10543e-14
-1.42109e-14
1.27898e-13
2.13163e-13
3.12639e-13
2.70006e-13
2.27374e-13
2.98428e-13
3.69482e-13
4.54747e-13
5.54223e-13
6.39488e-13
7.24754e-13
7.95808e-13
8.2423e-13
8.66862e-13
1.03739e-12
1.03739e-12
9.80549e-13
9.80549e-13
9.66338e-13
8.52651e-13
6.6791e-13
6.39488e-13
5.68434e-13
5.68434e-13
6.53699e-13
7.81597e-13
8.10019e-13
8.66862e-13
8.81073e-13
9.09495e-13
9.52127e-13
8.66862e-13
9.09495e-13
1.00897e-12
9.66338e-13
1.00897e-12
1.10845e-12
1.19371e-12
1.06581e-12
1.06581e-12
9.9476e-13
1.0516e-12
1.20792e-12
1.1795e-12
1.09424e-12
9.66338e-13
9.80549e-13
9.23706e-13
1.03739e-12
1.0516e-12
)
;

boundaryField
{
    sides
    {
        type            calculated;
        value           nonuniform List<scalar> 2(1.02318e-12 4.54747e-13);
    }
    empty
    {
        type            empty;
    }
}


// ************************************************************************* //
