/*--------------------------------*- C++ -*----------------------------------*\
  =========                 |
  \\      /  F ield         | OpenFOAM: The Open Source CFD Toolbox
   \\    /   O peration     | Website:  https://openfoam.org
    \\  /    A nd           | Version:  13
     \\/     M anipulation  |
\*---------------------------------------------------------------------------*/
FoamFile
{
    format      ascii;
    class       volScalarField;
    location    "0.005";
    object      rho;
}
// * * * * * * * * * * * * * * * * * * * * * * * * * * * * * * * * * * * * * //

dimensions      [1 -3 0 0 0 0 0];

internalField   nonuniform List<scalar> 
1000
(
0.995488
0.995488
0.995488
0.995488
0.995488
0.995488
0.995488
0.995488
0.995488
0.995488
0.995488
0.995488
0.995488
0.995488
0.995488
0.995488
0.995488
0.995488
0.995488
0.995488
0.995488
0.995488
0.995488
0.995488
0.995488
0.995488
0.995488
0.995488
0.995488
0.995488
0.995488
0.995488
0.995488
0.995488
0.995488
0.995488
0.995488
0.995488
0.995488
0.995488
0.995488
0.995488
0.995488
0.995488
0.995488
0.995488
0.995488
0.995488
0.995488
0.995488
0.995488
0.995488
0.995488
0.995488
0.995488
0.995488
0.995488
0.995488
0.995488
0.995488
0.995488
0.995488
0.995488
0.995488
0.995488
0.995488
0.995488
0.995488
0.995488
0.995488
0.995488
0.995488
0.995488
0.995488
0.995488
0.995488
0.995488
0.995488
0.995488
0.995488
0.995488
0.995488
0.995488
0.995488
0.995488
0.995488
0.995488
0.995488
0.995488
0.995488
0.995488
0.995488
0.995488
0.995488
0.995488
0.995488
0.995488
0.995488
0.995488
0.995488
0.995488
0.995488
0.995488
0.995488
0.995488
0.995488
0.995488
0.995488
0.995488
0.995488
0.995488
0.995488
0.995488
0.995488
0.995488
0.995488
0.995488
0.995488
0.995488
0.995488
0.995488
0.995488
0.995488
0.995488
0.995488
0.995488
0.995488
0.995488
0.995488
0.995488
0.995488
0.995488
0.995488
0.995488
0.995488
0.995488
0.995488
0.995488
0.995488
0.995488
0.995488
0.995488
0.995488
0.995488
0.995488
0.995488
0.995488
0.995488
0.995488
0.995488
0.995488
0.995488
0.995488
0.995488
0.995488
0.995488
0.995488
0.995488
0.995488
0.995488
0.995488
0.995488
0.995488
0.995488
0.995488
0.995488
0.995488
0.995488
0.995488
0.995488
0.995488
0.995488
0.995488
0.995488
0.995488
0.995488
0.995488
0.995488
0.995488
0.995488
0.995488
0.995488
0.995488
0.995488
0.995488
0.995488
0.995488
0.995488
0.995488
0.995488
0.995488
0.995488
0.995488
0.995488
0.995488
0.995488
0.995488
0.995488
0.995488
0.995488
0.995488
0.995488
0.995488
0.995488
0.995488
0.995488
0.995488
0.995488
0.995488
0.995488
0.995488
0.995488
0.995488
0.995488
0.995488
0.995488
0.995488
0.995488
0.995488
0.995488
0.995488
0.995488
0.995488
0.995488
0.995488
0.995488
0.995488
0.995488
0.995488
0.995488
0.995488
0.995488
0.995488
0.995488
0.995488
0.995488
0.995488
0.995488
0.995488
0.995488
0.995488
0.995488
0.995488
0.995488
0.995488
0.995488
0.995488
0.995488
0.995488
0.995488
0.995488
0.995488
0.995488
0.995488
0.995488
0.995488
0.995488
0.995488
0.995488
0.995488
0.995488
0.995488
0.995488
0.995488
0.995488
0.995488
0.995488
0.995488
0.995488
0.995488
0.995488
0.995488
0.995488
0.995488
0.995488
0.995488
0.995488
0.995488
0.995488
0.995488
0.995488
0.995488
0.995488
0.995488
0.995487
0.995487
0.995487
0.995486
0.995485
0.995483
0.99548
0.995474
0.995464
0.995447
0.995419
0.995374
0.995302
0.995192
0.995026
0.994784
0.994441
0.993972
0.993352
0.992559
0.991575
0.990388
0.98899
0.987382
0.985566
0.98355
0.981345
0.978961
0.976413
0.973714
0.970877
0.967917
0.964845
0.961674
0.958415
0.955077
0.95167
0.948202
0.94468
0.941112
0.937503
0.933859
0.930184
0.926483
0.922759
0.919017
0.915258
0.911486
0.907703
0.903912
0.900114
0.896311
0.892504
0.888696
0.884887
0.881079
0.877272
0.873468
0.869667
0.86587
0.862079
0.858293
0.854513
0.85074
0.846974
0.843216
0.839466
0.835724
0.831992
0.828269
0.824555
0.820851
0.817158
0.813475
0.809803
0.806142
0.802493
0.798855
0.795229
0.791615
0.788013
0.784424
0.780848
0.777285
0.773736
0.7702
0.766679
0.763173
0.759681
0.756206
0.752747
0.749305
0.74588
0.742475
0.73909
0.735726
0.732386
0.72907
0.725782
0.722525
0.719303
0.716119
0.712981
0.709895
0.70687
0.703918
0.701052
0.698289
0.695648
0.69315
0.690819
0.688679
0.686751
0.685053
0.683594
0.682376
0.681389
0.680617
0.680034
0.679609
0.679313
0.679115
0.678988
0.678912
0.678869
0.678846
0.678828
0.678806
0.678774
0.678722
0.678634
0.678485
0.678232
0.677814
0.677149
0.676146
0.674722
0.672832
0.67048
0.667715
0.664606
0.661226
0.657639
0.653899
0.650047
0.646113
0.642121
0.63809
0.634034
0.629962
0.625884
0.621805
0.61773
0.613664
0.609609
0.605568
0.601543
0.597535
0.593545
0.589575
0.585626
0.581698
0.577791
0.573907
0.570045
0.566206
0.562389
0.558596
0.554826
0.55108
0.547356
0.543656
0.53998
0.536326
0.532696
0.52909
0.525506
0.521946
0.518408
0.514894
0.511402
0.507934
0.504488
0.501064
0.497664
0.494285
0.490929
0.487595
0.484283
0.480994
0.477726
0.47448
0.471256
0.468054
0.464874
0.461716
0.458579
0.455464
0.452372
0.449301
0.446252
0.443226
0.440222
0.437241
0.434284
0.43135
0.42844
0.425556
0.422698
0.419867
0.417065
0.414294
0.411557
0.408856
0.406197
0.403581
0.401017
0.398504
0.396062
0.393715
0.391493
0.389427
0.387553
0.385908
0.384521
0.383407
0.382564
0.381966
0.381573
0.381337
0.381211
0.381152
0.381129
0.381122
0.381121
0.381121
0.38112
0.38112
0.381119
0.381117
0.381115
0.381114
0.381113
0.381114
0.381116
0.381119
0.381122
0.381124
0.381126
0.381128
0.381129
0.381129
0.38113
0.38113
0.38113
0.38113
0.381129
0.381129
0.381128
0.381128
0.381127
0.381127
0.381126
0.381126
0.381125
0.381124
0.381124
0.381123
0.381123
0.381122
0.381122
0.381121
0.381121
0.38112
0.38112
0.381119
0.381119
0.381119
0.381118
0.381118
0.381117
0.381117
0.381116
0.381116
0.381115
0.381115
0.381114
0.381114
0.381114
0.381113
0.381113
0.381112
0.381112
0.381111
0.381111
0.38111
0.381109
0.381109
0.381108
0.381108
0.381107
0.381107
0.381106
0.381105
0.381105
0.381104
0.381104
0.381103
0.381103
0.381102
0.381101
0.381101
0.3811
0.3811
0.381099
0.381098
0.381097
0.381097
0.381096
0.381095
0.381094
0.381094
0.381093
0.381092
0.381091
0.381091
0.38109
0.381089
0.381088
0.381087
0.381087
0.381086
0.381085
0.381084
0.381083
0.381082
0.381081
0.38108
0.381079
0.381078
0.381076
0.381074
0.381072
0.381068
0.381063
0.381054
0.381042
0.381024
0.380996
0.380953
0.38089
0.380797
0.38066
0.380462
0.380178
0.379779
0.379225
0.378467
0.377445
0.37609
0.374325
0.372064
0.369223
0.36572
0.361489
0.356484
0.350695
0.344153
0.33694
0.329191
0.32109
0.312869
0.304786
0.297114
0.290111
0.283995
0.278912
0.274908
0.271922
0.269808
0.268379
0.26745
0.266866
0.26651
0.266299
0.266177
0.266111
0.266076
0.266059
0.266052
0.266049
0.266049
0.266049
0.26605
0.266052
0.266055
0.266059
0.266062
0.266064
0.266065
0.266066
0.266066
0.266066
0.266066
0.266065
0.266065
0.266064
0.266064
0.266063
0.266062
0.266062
0.266061
0.26606
0.266059
0.266059
0.266058
0.266057
0.266057
0.266056
0.266056
0.266055
0.266055
0.266054
0.266054
0.266054
0.266053
0.266053
0.266052
0.266052
0.266052
0.266051
0.266051
0.266051
0.26605
0.26605
0.26605
0.266049
0.266049
0.266049
0.266048
0.266048
0.266048
0.266047
0.266047
0.266047
0.266046
0.266046
0.266046
0.266045
0.266045
0.266045
0.266045
0.266044
0.266044
0.266044
0.266043
0.266043
0.266043
0.266042
0.266042
0.266042
0.266041
0.266041
0.266041
0.26604
0.26604
0.26604
0.266039
0.266039
0.266039
0.266038
0.266038
0.266038
0.266037
0.266037
0.266037
0.266036
0.266036
0.266035
0.266035
0.266035
0.266034
0.266034
0.266034
0.266032
0.266033
0.26603
0.266033
0.266026
0.266033
0.266018
0.266035
0.265993
0.266031
0.265917
0.265996
0.265684
0.26578
0.264926
0.264731
0.26201
0.260371
0.250924
0.242261
0.213288
0.173568
0.135714
0.126455
0.124773
0.124491
0.124445
0.124437
0.124436
0.124436
0.124436
0.124436
0.124436
0.124436
0.124436
0.124436
0.124436
0.124436
0.124436
0.124436
0.124436
0.124436
0.124436
0.124436
0.124436
0.124436
0.124436
0.124436
0.124436
0.124436
0.124436
0.124436
0.124436
0.124436
0.124436
0.124436
0.124436
0.124436
0.124436
0.124436
0.124436
0.124436
0.124436
0.124436
0.124436
0.124436
0.124436
0.124436
0.124436
0.124436
0.124436
0.124436
0.124436
0.124436
0.124436
0.124436
0.124436
0.124436
0.124436
0.124436
0.124436
0.124436
0.124436
0.124436
0.124436
0.124436
0.124436
0.124436
0.124436
0.124436
0.124436
0.124436
0.124436
0.124436
0.124436
0.124436
0.124436
0.124436
0.124436
0.124436
0.124436
0.124436
0.124436
0.124436
0.124436
0.124436
0.124436
0.124436
0.124436
0.124436
0.124436
0.124436
0.124436
0.124436
0.124436
0.124436
0.124436
0.124436
0.124436
0.124436
0.124436
0.124436
0.124436
0.124436
0.124436
0.124436
0.124436
0.124436
0.124436
0.124436
0.124436
0.124436
0.124436
0.124436
0.124436
0.124436
0.124436
0.124436
0.124436
0.124436
0.124436
0.124436
0.124436
0.124436
0.124436
0.124436
0.124436
0.124436
0.124436
0.124436
0.124436
0.124436
0.124436
0.124436
0.124436
0.124436
0.124436
0.124436
0.124436
0.124436
0.124436
0.124436
0.124436
0.124436
0.124436
0.124436
0.124436
0.124436
0.124436
0.124436
0.124436
0.124436
0.124436
0.124436
0.124436
0.124436
0.124436
0.124436
0.124436
0.124436
0.124436
0.124436
0.124436
0.124436
0.124436
0.124436
0.124436
0.124436
0.124436
0.124436
0.124436
0.124436
0.124436
0.124436
0.124436
0.124436
0.124436
0.124436
0.124436
0.124436
0.124436
0.124436
0.124436
0.124436
0.124436
0.124436
0.124436
0.124436
0.124436
0.124436
0.124436
0.124436
0.124436
0.124436
0.124436
0.124436
0.124436
0.124436
0.124436
0.124436
0.124436
0.124436
0.124436
0.124436
0.124436
0.124436
0.124436
0.124436
0.124436
0.124436
0.124436
0.124436
)
;

boundaryField
{
    sides
    {
        type            calculated;
        value           nonuniform List<scalar> 2(0.124436 0.995488);
    }
    empty
    {
        type            empty;
    }
}


// ************************************************************************* //
