/*--------------------------------*- C++ -*----------------------------------*\
  =========                 |
  \\      /  F ield         | OpenFOAM: The Open Source CFD Toolbox
   \\    /   O peration     | Website:  https://openfoam.org
    \\  /    A nd           | Version:  13
     \\/     M anipulation  |
\*---------------------------------------------------------------------------*/
FoamFile
{
    format      ascii;
    class       volScalarField;
    location    "0.005";
    object      T;
}
// * * * * * * * * * * * * * * * * * * * * * * * * * * * * * * * * * * * * * //

dimensions      [0 0 0 1 0 0 0];

internalField   nonuniform List<scalar> 
1000
(
348.432
348.432
348.432
348.432
348.432
348.432
348.432
348.432
348.432
348.432
348.432
348.432
348.432
348.432
348.432
348.432
348.432
348.432
348.432
348.432
348.432
348.432
348.432
348.432
348.432
348.432
348.432
348.432
348.432
348.432
348.432
348.432
348.432
348.432
348.432
348.432
348.432
348.432
348.432
348.432
348.432
348.432
348.432
348.432
348.432
348.432
348.432
348.432
348.432
348.432
348.432
348.432
348.432
348.432
348.432
348.432
348.432
348.432
348.432
348.432
348.432
348.432
348.432
348.432
348.432
348.432
348.432
348.432
348.432
348.432
348.432
348.432
348.432
348.432
348.432
348.432
348.432
348.432
348.432
348.432
348.432
348.432
348.432
348.432
348.432
348.432
348.432
348.432
348.432
348.432
348.432
348.432
348.432
348.432
348.432
348.432
348.432
348.432
348.432
348.432
348.432
348.432
348.432
348.432
348.432
348.432
348.432
348.432
348.432
348.432
348.432
348.432
348.432
348.432
348.432
348.432
348.432
348.432
348.432
348.432
348.432
348.432
348.432
348.432
348.432
348.432
348.432
348.432
348.432
348.432
348.432
348.432
348.432
348.432
348.432
348.432
348.432
348.432
348.432
348.432
348.432
348.432
348.432
348.432
348.432
348.432
348.432
348.432
348.432
348.432
348.432
348.432
348.432
348.432
348.432
348.432
348.432
348.432
348.432
348.432
348.432
348.432
348.432
348.432
348.432
348.432
348.432
348.432
348.432
348.432
348.432
348.432
348.432
348.432
348.432
348.432
348.432
348.432
348.432
348.432
348.432
348.432
348.432
348.432
348.432
348.432
348.432
348.432
348.432
348.432
348.432
348.432
348.432
348.432
348.432
348.432
348.432
348.432
348.432
348.432
348.432
348.432
348.432
348.432
348.432
348.432
348.432
348.432
348.432
348.432
348.432
348.432
348.432
348.432
348.432
348.432
348.432
348.432
348.432
348.432
348.432
348.432
348.432
348.432
348.432
348.432
348.432
348.432
348.432
348.432
348.432
348.432
348.432
348.432
348.432
348.432
348.432
348.432
348.432
348.432
348.432
348.432
348.432
348.432
348.432
348.432
348.432
348.432
348.432
348.432
348.432
348.432
348.432
348.432
348.432
348.432
348.432
348.432
348.432
348.432
348.432
348.432
348.432
348.432
348.432
348.432
348.432
348.432
348.432
348.432
348.432
348.432
348.432
348.432
348.432
348.432
348.432
348.432
348.432
348.432
348.432
348.432
348.432
348.432
348.432
348.432
348.432
348.432
348.432
348.431
348.431
348.43
348.429
348.426
348.422
348.416
348.406
348.391
348.367
348.333
348.285
348.22
348.133
348.022
347.884
347.717
347.521
347.295
347.039
346.755
346.444
346.108
345.747
345.365
344.962
344.542
344.104
343.652
343.186
342.708
342.218
341.719
341.212
340.696
340.173
339.644
339.11
338.57
338.025
337.477
336.925
336.369
335.81
335.249
334.686
334.12
333.552
332.983
332.412
331.839
331.265
330.691
330.115
329.538
328.961
328.383
327.804
327.225
326.645
326.065
325.485
324.904
324.324
323.743
323.162
322.581
322
321.42
320.839
320.259
319.678
319.098
318.519
317.94
317.361
316.782
316.204
315.627
315.05
314.474
313.899
313.324
312.75
312.178
311.606
311.036
310.467
309.9
309.334
308.771
308.21
307.652
307.096
306.545
305.998
305.456
304.92
304.392
303.873
303.365
302.871
302.393
301.935
301.502
301.096
300.723
300.386
300.089
299.833
299.62
299.447
299.311
299.209
299.134
299.082
299.048
299.026
299.013
299.005
299.001
299
299
299
299
299
299
299
299
299
299
299
299
299
299
299
299
299
299
299
299
299
299
299
299
299
299
299
299
299
299
299
299
299
299
299
299
299
299
299
299
299
299
299
299
299
299
299
299
299
299
299
299
299
299
299
299
299
299
299
299
299
299
299
299
299
299
299
299
299
299
299
299
299
299
299
299
299
299
299
299
299
299
299
299
299
299
299
299
299
299
299
299
299
299
299
299
299
299
299
299
299
299
299
299
299
299
299
299
299
299
299
299
299
299
299
299
299
299
299.001
299.002
299.003
299.004
299.005
299.005
299.005
299.006
299.006
299.006
299.006
299.006
299.006
299.006
299.006
299.006
299.006
299.006
299.006
299.006
299.006
299.007
299.007
299.007
299.007
299.007
299.007
299.007
299.007
299.007
299.007
299.007
299.007
299.008
299.008
299.008
299.008
299.008
299.008
299.008
299.009
299.009
299.009
299.009
299.009
299.01
299.01
299.01
299.01
299.01
299.011
299.011
299.011
299.011
299.012
299.012
299.012
299.013
299.013
299.013
299.013
299.014
299.014
299.014
299.015
299.015
299.015
299.016
299.016
299.016
299.017
299.017
299.017
299.018
299.018
299.019
299.019
299.02
299.02
299.021
299.021
299.021
299.022
299.022
299.023
299.023
299.024
299.024
299.025
299.025
299.026
299.027
299.027
299.028
299.029
299.029
299.03
299.032
299.034
299.037
299.041
299.047
299.056
299.071
299.093
299.126
299.175
299.248
299.356
299.512
299.735
300.05
300.488
301.09
301.906
302.994
304.424
306.274
308.633
311.593
315.244
319.676
324.96
331.145
338.241
346.211
354.95
364.279
373.937
383.585
392.833
401.278
408.579
414.52
419.066
422.346
424.593
426.067
426.999
427.57
427.908
428.103
428.21
428.266
428.293
428.305
428.308
428.309
428.308
428.307
428.303
428.298
428.292
428.286
428.283
428.281
428.28
428.279
428.279
428.279
428.279
428.28
428.28
428.281
428.282
428.283
428.284
428.285
428.286
428.287
428.288
428.288
428.289
428.29
428.29
428.291
428.291
428.292
428.292
428.293
428.293
428.294
428.294
428.294
428.295
428.295
428.295
428.296
428.296
428.296
428.296
428.296
428.297
428.297
428.297
428.297
428.297
428.297
428.298
428.298
428.298
428.298
428.298
428.298
428.298
428.298
428.298
428.298
428.299
428.299
428.299
428.299
428.299
428.299
428.299
428.299
428.299
428.299
428.299
428.299
428.299
428.299
428.299
428.299
428.299
428.299
428.299
428.299
428.299
428.299
428.298
428.298
428.298
428.298
428.298
428.298
428.298
428.298
428.297
428.298
428.297
428.297
428.296
428.298
428.294
428.298
428.288
428.299
428.272
428.297
428.224
428.274
428.076
428.129
427.585
427.431
425.713
424.466
418.439
411.474
389.825
353.327
311.507
301.057
299.331
299.053
299.009
299.001
299
299
299
299
299
299
299
299
299
299
299
299
299
299
299
299
299
299
299
299
299
299
299
299
299
299
299
299
299
299
299
299
299
299
299
299
299
299
299
299
299
299
299
299
299
299
299
299
299
299
299
299
299
299
299
299
299
299
299
299
299
299
299
299
299
299
299
299
299
299
299
299
299
299
299
299
299
299
299
299
299
299
299
299
299
299
299
299
299
299
299
299
299
299
299
299
299
299
299
299
299
299
299
299
299
299
299
299
299
299
299
299
299
299
299
299
299
299
299
299
299
299
299
299
299
299
299
299
299
299
299
299
299
299
299
299
299
299
299
299
299
299
299
299
299
299
299
299
299
299
299
299
299
299
299
299
299
299
299
299
299
299
299
299
299
299
299
299
299
299
299
299
299
299
299
299
299
299
299
299
299
299
299
299
299
299
299
299
299
299
299
299
299
299
299
299
299
299
299
299
299
299
299
299
)
;

boundaryField
{
    sides
    {
        type            zeroGradient;
    }
    empty
    {
        type            empty;
    }
}


// ************************************************************************* //
