/*--------------------------------*- C++ -*----------------------------------*\
  =========                 |
  \\      /  F ield         | OpenFOAM: The Open Source CFD Toolbox
   \\    /   O peration     | Website:  https://openfoam.org
    \\  /    A nd           | Version:  13
     \\/     M anipulation  |
\*---------------------------------------------------------------------------*/
FoamFile
{
    format      ascii;
    class       volVectorField;
    location    "0.005";
    object      U;
}
// * * * * * * * * * * * * * * * * * * * * * * * * * * * * * * * * * * * * * //

dimensions      [0 1 -1 0 0 0 0];

internalField   nonuniform List<vector> 
1000
(
(-1.38828e-13 0 0)
(-1.02326e-13 0 0)
(-7.30748e-14 0 0)
(-2.19518e-14 0 0)
(7.30635e-15 0 0)
(3.64781e-14 0 0)
(-2.53709e-17 0 0)
(-6.56689e-14 0 0)
(-1.46385e-14 0 0)
(7.30389e-15 0 0)
(2.91957e-14 0 0)
(7.35123e-15 0 0)
(3.64825e-14 0 0)
(-2.48506e-17 0 0)
(-6.56715e-14 0 0)
(-1.46463e-14 0 0)
(-1.49699e-17 0 0)
(1.29941e-17 0 0)
(1.46157e-14 0 0)
(2.91938e-14 0 0)
(1.76053e-17 0 0)
(-7.31884e-15 0 0)
(-2.91942e-14 0 0)
(-7.32092e-15 0 0)
(-8.29165e-18 0 0)
(7.34132e-26 0 0)
(8.29174e-18 0 0)
(7.32092e-15 0 0)
(2.91967e-14 0 0)
(7.35175e-15 0 0)
(3.64814e-14 0 0)
(-2.53681e-17 0 0)
(-6.56689e-14 0 0)
(-1.46385e-14 0 0)
(7.30389e-15 0 0)
(2.91957e-14 0 0)
(7.35123e-15 0 0)
(3.64825e-14 0 0)
(-2.48506e-17 0 0)
(-6.56715e-14 0 0)
(-1.46464e-14 0 0)
(-3.65601e-14 0 0)
(-1.46167e-13 0 0)
(-2.26582e-13 0 0)
(-4.45885e-13 0 0)
(-5.40845e-13 0 0)
(-4.97021e-13 0 0)
(-6.28529e-13 0 0)
(-7.82059e-13 0 0)
(-6.35882e-13 0 0)
(-4.09302e-13 0 0)
(-2.63119e-13 0 0)
(-2.77732e-13 0 0)
(-3.58175e-13 0 0)
(-4.38495e-13 0 0)
(-4.60527e-13 0 0)
(-6.0666e-13 0 0)
(-6.13843e-13 0 0)
(-5.84733e-13 0 0)
(-5.55502e-13 0 0)
(-7.7477e-13 0 0)
(-7.674e-13 0 0)
(-8.11346e-13 0 0)
(-8.6247e-13 0 0)
(-9.57373e-13 0 0)
(-9.06329e-13 0 0)
(-7.89395e-13 0 0)
(-7.30874e-13 0 0)
(-5.40881e-13 0 0)
(-5.70126e-13 0 0)
(-4.82369e-13 0 0)
(-4.23951e-13 0 0)
(-5.04266e-13 0 0)
(-4.09291e-13 0 0)
(-3.58148e-13 0 0)
(-3.87386e-13 0 0)
(-3.2887e-13 0 0)
(-2.19285e-13 0 0)
(-3.58177e-13 0 0)
(-4.53113e-13 0 0)
(-5.2634e-13 0 0)
(-7.60117e-13 0 0)
(-8.69641e-13 0 0)
(-7.6015e-13 0 0)
(-6.4323e-13 0 0)
(-7.82065e-13 0 0)
(-9.13597e-13 0 0)
(-9.79458e-13 0 0)
(-1.04513e-12 0 0)
(-9.72012e-13 0 0)
(-8.55175e-13 0 0)
(-6.79745e-13 0 0)
(-4.82365e-13 0 0)
(-3.65494e-13 0 0)
(-4.02024e-13 0 0)
(-4.09278e-13 0 0)
(-3.87418e-13 0 0)
(-4.96992e-13 0 0)
(-5.40743e-13 0 0)
(-4.31238e-13 0 0)
(-3.5098e-13 0 0)
(-3.65382e-13 0 0)
(-2.77754e-13 0 0)
(-1.38849e-13 0 0)
(-1.46153e-13 0 0)
(-3.143e-13 0 0)
(-2.55825e-13 0 0)
(-2.70375e-13 0 0)
(-2.70436e-13 0 0)
(-1.46198e-13 0 0)
(-4.38876e-14 0 0)
(5.84317e-14 0 0)
(-2.92544e-14 0 0)
(-1.60656e-13 0 0)
(-4.38609e-14 0 0)
(1.7532e-13 0 0)
(1.16991e-13 0 0)
(1.75402e-13 0 0)
(1.82702e-13 0 0)
(2.41182e-13 0 0)
(1.09623e-13 0 0)
(-5.11136e-14 0 0)
(-7.28076e-15 0 0)
(2.18889e-14 0 0)
(5.12591e-14 0 0)
(1.60689e-13 0 0)
(2.63149e-13 0 0)
(3.72748e-13 0 0)
(3.21509e-13 0 0)
(1.16955e-13 0 0)
(1.46537e-14 0 0)
(-3.6511e-14 0 0)
(-4.38385e-14 0 0)
(-2.92823e-14 0 0)
(-1.16903e-13 0 0)
(-2.63112e-13 0 0)
(-2.70516e-13 0 0)
(-4.23912e-13 0 0)
(-5.26158e-13 0 0)
(-5.26218e-13 0 0)
(-4.24005e-13 0 0)
(-4.82304e-13 0 0)
(-4.02042e-13 0 0)
(-4.09264e-13 0 0)
(-2.63253e-13 0 0)
(-4.31186e-13 0 0)
(-4.96906e-13 0 0)
(-4.09306e-13 0 0)
(-3.65503e-13 0 0)
(-3.94521e-13 0 0)
(-2.12109e-13 0 0)
(-1.97348e-13 0 0)
(-2.04623e-13 0 0)
(-1.31633e-13 0 0)
(-1.46178e-13 0 0)
(-1.60633e-13 0 0)
(1.45226e-14 0 0)
(-2.19338e-14 0 0)
(-2.19082e-14 0 0)
(-7.30096e-15 0 0)
(-2.92005e-14 0 0)
(1.022e-13 0 0)
(1.45904e-14 0 0)
(-1.09535e-13 0 0)
(-9.50372e-14 0 0)
(-1.31543e-13 0 0)
(-7.31416e-14 0 0)
(-1.24181e-13 0 0)
(-8.04056e-14 0 0)
(-2.19983e-14 0 0)
(-7.30902e-14 0 0)
(-1.5342e-13 0 0)
(-1.31551e-13 0 0)
(-9.51173e-14 0 0)
(-2.19073e-13 0 0)
(-7.31381e-14 0 0)
(1.45678e-14 0 0)
(7.30338e-14 0 0)
(-6.62632e-17 0 0)
(-1.46156e-13 0 0)
(-2.2637e-13 0 0)
(-3.08264e-18 0 0)
(1.53453e-13 0 0)
(2.99612e-13 0 0)
(3.80076e-13 0 0)
(4.45809e-13 0 0)
(4.96937e-13 0 0)
(4.23899e-13 0 0)
(3.21694e-13 0 0)
(3.72745e-13 0 0)
(3.50814e-13 0 0)
(3.50831e-13 0 0)
(3.14327e-13 0 0)
(1.68093e-13 0 0)
(2.91012e-14 0 0)
(-9.50079e-14 0 0)
(-1.31459e-13 0 0)
(-1.09676e-13 0 0)
(-1.38853e-13 0 0)
(-1.97215e-13 0 0)
(1.45444e-14 0 0)
(-7.34255e-15 0 0)
(4.3868e-14 0 0)
(1.46061e-13 0 0)
(1.69316e-17 0 0)
(-2.04555e-13 0 0)
(-1.974e-13 0 0)
(-2.63066e-13 0 0)
(-3.65437e-13 0 0)
(-4.53131e-13 0 0)
(-4.4587e-13 0 0)
(-4.82475e-13 0 0)
(-6.4321e-13 0 0)
(-7.81933e-13 0 0)
(-8.69781e-13 0 0)
(-8.55165e-13 0 0)
(-8.55129e-13 0 0)
(-8.91687e-13 0 0)
(-8.62473e-13 0 0)
(-8.2602e-13 0 0)
(-1.16207e-12 0 0)
(-1.06705e-12 0 0)
(-1.07443e-12 0 0)
(-1.19142e-12 0 0)
(-1.27159e-12 0 0)
(-1.19873e-12 0 0)
(-1.11826e-12 0 0)
(-1.21334e-12 0 0)
(-1.23529e-12 0 0)
(-1.38864e-12 0 0)
(-1.5202e-12 0 0)
(-1.51295e-12 0 0)
(-1.39608e-12 0 0)
(-1.25714e-12 0 0)
(-1.38863e-12 0 0)
(-1.34485e-12 0 0)
(-1.34486e-12 0 0)
(-1.38139e-12 0 0)
(-1.35949e-12 0 0)
(-1.38133e-12 0 0)
(-1.37409e-12 0 0)
(-1.43257e-12 0 0)
(-1.52023e-12 0 0)
(-1.33026e-12 0 0)
(-1.24254e-12 0 0)
(-1.28629e-12 0 0)
(-1.18408e-12 0 0)
(-1.32289e-12 0 0)
(-1.10369e-12 0 0)
(-1.00857e-12 0 0)
(-9.42931e-13 0 0)
(-1.03057e-12 0 0)
(-9.93986e-13 0 0)
(-8.40556e-13 0 0)
(-7.747e-13 0 0)
(-6.94376e-13 0 0)
(-6.72394e-13 0 0)
(-5.55469e-13 0 0)
(-2.77762e-13 0 0)
(2.63114e-13 0 0)
(1.09632e-12 0 0)
(3.82262e-12 0 0)
(8.77815e-12 0 0)
(2.06771e-11 0 0)
(4.49356e-11 0 0)
(1.00089e-10 0 0)
(2.17135e-10 0 0)
(4.72182e-10 0 0)
(1.01334e-09 0 0)
(2.16868e-09 0 0)
(4.60329e-09 0 0)
(9.71454e-09 0 0)
(2.03468e-08 0 0)
(4.23281e-08 0 0)
(8.73936e-08 0 0)
(1.79118e-07 0 0)
(3.64286e-07 0 0)
(7.35112e-07 0 0)
(1.47153e-06 0 0)
(2.92152e-06 0 0)
(5.75144e-06 0 0)
(1.12246e-05 0 0)
(2.17111e-05 0 0)
(4.16096e-05 0 0)
(7.89908e-05 0 0)
(0.000148488 0 0)
(0.000276302 0 0)
(0.000508728 0 0)
(0.000926424 0 0)
(0.00166781 0 0)
(0.00296658 0 0)
(0.00521039 0 0)
(0.00902981 0 0)
(0.0154282 0 0)
(0.0259626 0 0)
(0.0429793 0 0)
(0.0698916 0 0)
(0.111459 0 0)
(0.17398 0 0)
(0.265293 0 0)
(0.394473 0 0)
(0.571215 0 0)
(0.805017 0 0)
(1.10436 0 0)
(1.47607 0 0)
(1.92497 0 0)
(2.45373 0 0)
(3.06306 0 0)
(3.75191 0 0)
(4.51786 0 0)
(5.3574 0 0)
(6.26632 0 0)
(7.23996 0 0)
(8.27349 0 0)
(9.36203 0 0)
(10.5008 0 0)
(11.6854 0 0)
(12.9115 0 0)
(14.1751 0 0)
(15.4727 0 0)
(16.8009 0 0)
(18.1568 0 0)
(19.5376 0 0)
(20.941 0 0)
(22.3647 0 0)
(23.8069 0 0)
(25.2656 0 0)
(26.7395 0 0)
(28.2271 0 0)
(29.7272 0 0)
(31.2386 0 0)
(32.7603 0 0)
(34.2915 0 0)
(35.8313 0 0)
(37.379 0 0)
(38.9339 0 0)
(40.4956 0 0)
(42.0633 0 0)
(43.6367 0 0)
(45.2153 0 0)
(46.7988 0 0)
(48.3866 0 0)
(49.9786 0 0)
(51.5744 0 0)
(53.1737 0 0)
(54.7763 0 0)
(56.3819 0 0)
(57.9903 0 0)
(59.6013 0 0)
(61.2148 0 0)
(62.8305 0 0)
(64.4483 0 0)
(66.068 0 0)
(67.6894 0 0)
(69.3125 0 0)
(70.9371 0 0)
(72.563 0 0)
(74.1902 0 0)
(75.8184 0 0)
(77.4477 0 0)
(79.0778 0 0)
(80.7086 0 0)
(82.3401 0 0)
(83.9721 0 0)
(85.6044 0 0)
(87.2369 0 0)
(88.8696 0 0)
(90.5021 0 0)
(92.1344 0 0)
(93.7663 0 0)
(95.3976 0 0)
(97.028 0 0)
(98.6573 0 0)
(100.285 0 0)
(101.911 0 0)
(103.536 0 0)
(105.157 0 0)
(106.776 0 0)
(108.391 0 0)
(110.002 0 0)
(111.607 0 0)
(113.206 0 0)
(114.798 0 0)
(116.38 0 0)
(117.951 0 0)
(119.509 0 0)
(121.05 0 0)
(122.571 0 0)
(124.066 0 0)
(125.531 0 0)
(126.958 0 0)
(128.338 0 0)
(129.661 0 0)
(130.916 0 0)
(132.09 0 0)
(133.171 0 0)
(134.147 0 0)
(135.009 0 0)
(135.751 0 0)
(136.371 0 0)
(136.874 0 0)
(137.268 0 0)
(137.565 0 0)
(137.782 0 0)
(137.934 0 0)
(138.035 0 0)
(138.099 0 0)
(138.138 0 0)
(138.16 0 0)
(138.172 0 0)
(138.18 0 0)
(138.189 0 0)
(138.203 0 0)
(138.225 0 0)
(138.263 0 0)
(138.328 0 0)
(138.437 0 0)
(138.618 0 0)
(138.906 0 0)
(139.341 0 0)
(139.96 0 0)
(140.783 0 0)
(141.811 0 0)
(143.024 0 0)
(144.394 0 0)
(145.891 0 0)
(147.488 0 0)
(149.162 0 0)
(150.897 0 0)
(152.679 0 0)
(154.498 0 0)
(156.347 0 0)
(158.219 0 0)
(160.11 0 0)
(162.017 0 0)
(163.936 0 0)
(165.866 0 0)
(167.805 0 0)
(169.752 0 0)
(171.704 0 0)
(173.662 0 0)
(175.625 0 0)
(177.592 0 0)
(179.562 0 0)
(181.535 0 0)
(183.511 0 0)
(185.489 0 0)
(187.469 0 0)
(189.452 0 0)
(191.435 0 0)
(193.421 0 0)
(195.408 0 0)
(197.396 0 0)
(199.385 0 0)
(201.375 0 0)
(203.367 0 0)
(205.359 0 0)
(207.352 0 0)
(209.346 0 0)
(211.34 0 0)
(213.335 0 0)
(215.331 0 0)
(217.328 0 0)
(219.325 0 0)
(221.322 0 0)
(223.32 0 0)
(225.319 0 0)
(227.318 0 0)
(229.317 0 0)
(231.317 0 0)
(233.317 0 0)
(235.318 0 0)
(237.319 0 0)
(239.32 0 0)
(241.321 0 0)
(243.323 0 0)
(245.324 0 0)
(247.326 0 0)
(249.327 0 0)
(251.329 0 0)
(253.33 0 0)
(255.331 0 0)
(257.331 0 0)
(259.331 0 0)
(261.33 0 0)
(263.328 0 0)
(265.324 0 0)
(267.319 0 0)
(269.311 0 0)
(271.302 0 0)
(273.289 0 0)
(275.272 0 0)
(277.25 0 0)
(279.223 0 0)
(281.189 0 0)
(283.146 0 0)
(285.093 0 0)
(287.026 0 0)
(288.942 0 0)
(290.838 0 0)
(292.711 0 0)
(294.553 0 0)
(296.358 0 0)
(298.103 0 0)
(299.765 0 0)
(301.319 0 0)
(302.735 0 0)
(303.984 0 0)
(305.042 0 0)
(305.893 0 0)
(306.54 0 0)
(306.999 0 0)
(307.301 0 0)
(307.482 0 0)
(307.58 0 0)
(307.625 0 0)
(307.643 0 0)
(307.648 0 0)
(307.648 0 0)
(307.649 0 0)
(307.649 0 0)
(307.649 0 0)
(307.65 0 0)
(307.651 0 0)
(307.652 0 0)
(307.653 0 0)
(307.654 0 0)
(307.653 0 0)
(307.651 0 0)
(307.648 0 0)
(307.645 0 0)
(307.643 0 0)
(307.641 0 0)
(307.639 0 0)
(307.638 0 0)
(307.638 0 0)
(307.637 0 0)
(307.637 0 0)
(307.636 0 0)
(307.636 0 0)
(307.636 0 0)
(307.637 0 0)
(307.637 0 0)
(307.637 0 0)
(307.637 0 0)
(307.637 0 0)
(307.638 0 0)
(307.638 0 0)
(307.638 0 0)
(307.638 0 0)
(307.638 0 0)
(307.639 0 0)
(307.639 0 0)
(307.639 0 0)
(307.639 0 0)
(307.639 0 0)
(307.64 0 0)
(307.64 0 0)
(307.64 0 0)
(307.64 0 0)
(307.64 0 0)
(307.64 0 0)
(307.64 0 0)
(307.64 0 0)
(307.64 0 0)
(307.64 0 0)
(307.64 0 0)
(307.64 0 0)
(307.64 0 0)
(307.64 0 0)
(307.64 0 0)
(307.64 0 0)
(307.64 0 0)
(307.641 0 0)
(307.641 0 0)
(307.641 0 0)
(307.641 0 0)
(307.641 0 0)
(307.641 0 0)
(307.641 0 0)
(307.641 0 0)
(307.641 0 0)
(307.641 0 0)
(307.641 0 0)
(307.641 0 0)
(307.641 0 0)
(307.641 0 0)
(307.641 0 0)
(307.641 0 0)
(307.641 0 0)
(307.641 0 0)
(307.641 0 0)
(307.641 0 0)
(307.641 0 0)
(307.641 0 0)
(307.641 0 0)
(307.641 0 0)
(307.641 0 0)
(307.641 0 0)
(307.641 0 0)
(307.641 0 0)
(307.641 0 0)
(307.641 0 0)
(307.641 0 0)
(307.641 0 0)
(307.641 0 0)
(307.641 0 0)
(307.641 0 0)
(307.641 0 0)
(307.641 0 0)
(307.641 0 0)
(307.641 0 0)
(307.64 0 0)
(307.64 0 0)
(307.64 0 0)
(307.64 0 0)
(307.64 0 0)
(307.64 0 0)
(307.64 0 0)
(307.64 0 0)
(307.64 0 0)
(307.64 0 0)
(307.64 0 0)
(307.64 0 0)
(307.64 0 0)
(307.64 0 0)
(307.64 0 0)
(307.64 0 0)
(307.64 0 0)
(307.64 0 0)
(307.64 0 0)
(307.64 0 0)
(307.639 0 0)
(307.639 0 0)
(307.639 0 0)
(307.639 0 0)
(307.639 0 0)
(307.639 0 0)
(307.639 0 0)
(307.639 0 0)
(307.639 0 0)
(307.639 0 0)
(307.639 0 0)
(307.64 0 0)
(307.641 0 0)
(307.642 0 0)
(307.643 0 0)
(307.646 0 0)
(307.649 0 0)
(307.653 0 0)
(307.658 0 0)
(307.663 0 0)
(307.669 0 0)
(307.673 0 0)
(307.676 0 0)
(307.677 0 0)
(307.674 0 0)
(307.669 0 0)
(307.662 0 0)
(307.655 0 0)
(307.648 0 0)
(307.643 0 0)
(307.64 0 0)
(307.639 0 0)
(307.638 0 0)
(307.638 0 0)
(307.637 0 0)
(307.638 0 0)
(307.638 0 0)
(307.637 0 0)
(307.637 0 0)
(307.637 0 0)
(307.637 0 0)
(307.637 0 0)
(307.637 0 0)
(307.637 0 0)
(307.636 0 0)
(307.636 0 0)
(307.636 0 0)
(307.636 0 0)
(307.636 0 0)
(307.636 0 0)
(307.636 0 0)
(307.636 0 0)
(307.635 0 0)
(307.635 0 0)
(307.635 0 0)
(307.635 0 0)
(307.635 0 0)
(307.635 0 0)
(307.635 0 0)
(307.635 0 0)
(307.634 0 0)
(307.634 0 0)
(307.634 0 0)
(307.634 0 0)
(307.634 0 0)
(307.634 0 0)
(307.633 0 0)
(307.633 0 0)
(307.633 0 0)
(307.633 0 0)
(307.633 0 0)
(307.633 0 0)
(307.632 0 0)
(307.632 0 0)
(307.632 0 0)
(307.632 0 0)
(307.632 0 0)
(307.632 0 0)
(307.631 0 0)
(307.631 0 0)
(307.631 0 0)
(307.631 0 0)
(307.631 0 0)
(307.63 0 0)
(307.63 0 0)
(307.63 0 0)
(307.63 0 0)
(307.63 0 0)
(307.629 0 0)
(307.629 0 0)
(307.629 0 0)
(307.629 0 0)
(307.629 0 0)
(307.628 0 0)
(307.628 0 0)
(307.628 0 0)
(307.628 0 0)
(307.627 0 0)
(307.627 0 0)
(307.627 0 0)
(307.627 0 0)
(307.626 0 0)
(307.626 0 0)
(307.626 0 0)
(307.625 0 0)
(307.625 0 0)
(307.625 0 0)
(307.625 0 0)
(307.624 0 0)
(307.624 0 0)
(307.624 0 0)
(307.623 0 0)
(307.623 0 0)
(307.623 0 0)
(307.622 0 0)
(307.622 0 0)
(307.622 0 0)
(307.621 0 0)
(307.621 0 0)
(307.62 0 0)
(307.62 0 0)
(307.62 0 0)
(307.619 0 0)
(307.619 0 0)
(307.618 0 0)
(307.618 0 0)
(307.618 0 0)
(307.617 0 0)
(307.617 0 0)
(307.616 0 0)
(307.616 0 0)
(307.615 0 0)
(307.615 0 0)
(307.614 0 0)
(307.614 0 0)
(307.612 0 0)
(307.613 0 0)
(307.61 0 0)
(307.612 0 0)
(307.606 0 0)
(307.612 0 0)
(307.599 0 0)
(307.61 0 0)
(307.581 0 0)
(307.598 0 0)
(307.528 0 0)
(307.541 0 0)
(307.359 0 0)
(307.297 0 0)
(306.842 0 0)
(306.242 0 0)
(305.126 0 0)
(301.698 0 0)
(298.153 0 0)
(283.812 0 0)
(267.895 0 0)
(216.269 0 0)
(132.564 0 0)
(32.5384 0 0)
(5.72813 0 0)
(0.945801 0 0)
(0.154508 0 0)
(0.0251981 0 0)
(0.00410766 0 0)
(0.000669588 0 0)
(0.000109149 0 0)
(1.77925e-05 0 0)
(2.90037e-06 0 0)
(4.72792e-07 0 0)
(7.70704e-08 0 0)
(1.25632e-08 0 0)
(2.04821e-09 0 0)
(3.33986e-10 0 0)
(5.4347e-11 0 0)
(9.03483e-12 0 0)
(1.38154e-12 0 0)
(2.77613e-13 0 0)
(2.19019e-14 0 0)
(-5.07478e-14 0 0)
(-1.4999e-14 0 0)
(-4.38978e-14 0 0)
(-7.25648e-14 0 0)
(-1.52562e-14 0 0)
(-7.24901e-14 0 0)
(-2.24894e-14 0 0)
(-7.25202e-14 0 0)
(-2.23808e-14 0 0)
(-5.08752e-14 0 0)
(-2.94873e-14 0 0)
(-5.08361e-14 0 0)
(-2.18892e-14 0 0)
(2.15917e-14 0 0)
(-6.94184e-15 0 0)
(2.90329e-14 0 0)
(3.68652e-14 0 0)
(1.01672e-13 0 0)
(5.17421e-14 0 0)
(1.09083e-13 0 0)
(6.61724e-14 0 0)
(1.01841e-13 0 0)
(5.10032e-14 0 0)
(-2.16639e-14 0 0)
(-5.08388e-14 0 0)
(-3.64636e-14 0 0)
(-1.4603e-14 0 0)
(2.83527e-14 0 0)
(-8.66744e-14 0 0)
(-4.42607e-14 0 0)
(-4.36981e-14 0 0)
(-2.94576e-14 0 0)
(-5.09043e-14 0 0)
(-2.94927e-14 0 0)
(-5.09077e-14 0 0)
(-2.94891e-14 0 0)
(-5.08362e-14 0 0)
(-2.18865e-14 0 0)
(2.88962e-14 0 0)
(-6.94742e-15 0 0)
(2.17621e-14 0 0)
(-3.64065e-14 0 0)
(2.88849e-14 0 0)
(2.95185e-14 0 0)
(-1.492e-14 0 0)
(-2.89606e-14 0 0)
(-3.70089e-14 0 0)
(-2.93796e-14 0 0)
(2.34893e-16 0 0)
(-9.471e-14 0 0)
(-7.30345e-14 0 0)
(-1.9e-13 0 0)
(-2.8586e-13 0 0)
(-3.64497e-13 0 0)
(-5.12026e-13 0 0)
(-4.52997e-13 0 0)
(-4.16798e-13 0 0)
(-5.18809e-13 0 0)
(-8.11491e-13 0 0)
(-1.14725e-12 0 0)
(-1.19159e-12 0 0)
(-1.29346e-12 0 0)
(-1.49088e-12 0 0)
(-1.58642e-12 0 0)
(-1.52732e-12 0 0)
(-1.67387e-12 0 0)
(-1.66635e-12 0 0)
(-1.44017e-12 0 0)
(-1.38107e-12 0 0)
(-1.4401e-12 0 0)
(-1.51993e-12 0 0)
(-1.52068e-12 0 0)
(-1.49836e-12 0 0)
(-1.60051e-12 0 0)
(-1.56416e-12 0 0)
(-1.58608e-12 0 0)
(-1.46168e-12 0 0)
(-1.41129e-12 0 0)
(-1.37339e-12 0 0)
(-1.36693e-12 0 0)
(-1.40317e-12 0 0)
(-1.43271e-12 0 0)
(-1.55681e-12 0 0)
(-1.6811e-12 0 0)
(-1.71708e-12 0 0)
(-1.68858e-12 0 0)
(-1.7179e-12 0 0)
(-1.64447e-12 0 0)
(-1.49821e-12 0 0)
(-1.54262e-12 0 0)
(-1.71748e-12 0 0)
(-1.96637e-12 0 0)
(-1.93714e-12 0 0)
(-2.22049e-12 0 0)
(-2.36875e-12 0 0)
(-2.3386e-12 0 0)
(-2.27251e-12 0 0)
(-1.94528e-12 0 0)
(-2.02467e-12 0 0)
(-2.15579e-12 0 0)
(-2.26435e-12 0 0)
(-2.0187e-12 0 0)
(-2.16322e-12 0 0)
(-2.075e-12 0 0)
(-1.85053e-12 0 0)
(-2.03212e-12 0 0)
(-2.1188e-12 0 0)
(-2.03904e-12 0 0)
(-1.93078e-12 0 0)
(-2.11805e-12 0 0)
(-2.14189e-12 0 0)
(-2.29524e-12 0 0)
(-2.26497e-12 0 0)
(-2.01007e-12 0 0)
(-1.92286e-12 0 0)
(-1.89999e-12 0 0)
(-1.6594e-12 0 0)
(-1.57254e-12 0 0)
(-1.66485e-12 0 0)
(-1.5721e-12 0 0)
(-1.64474e-12 0 0)
(-1.7747e-12 0 0)
(-1.51339e-12 0 0)
(-1.28607e-12 0 0)
(-1.17617e-12 0 0)
(-8.77264e-13 0 0)
(-5.7165e-13 0 0)
(-7.74068e-13 0 0)
(-7.30597e-13 0 0)
(-6.80298e-13 0 0)
(-7.00891e-13 0 0)
(-6.2134e-13 0 0)
(-4.82701e-13 0 0)
(-3.8905e-13 0 0)
(-6.85658e-13 0 0)
(-6.21847e-13 0 0)
(-5.6986e-13 0 0)
(-3.71567e-13 0 0)
(-1.17707e-13 0 0)
(5.86167e-14 0 0)
(4.16534e-13 0 0)
(5.99193e-13 0 0)
(6.56624e-13 0 0)
(3.81213e-13 0 0)
(4.82238e-13 0 0)
(6.86727e-13 0 0)
(7.61567e-13 0 0)
(1.01542e-12 0 0)
(1.19879e-12 0 0)
(1.35933e-12 0 0)
(1.56496e-12 0 0)
(1.6944e-12 0 0)
(1.67341e-12 0 0)
(1.94507e-12 0 0)
(2.15591e-12 0 0)
(2.03224e-12 0 0)
(1.98744e-12 0 0)
(2.00217e-12 0 0)
(1.79739e-12 0 0)
(1.40433e-12 0 0)
(1.3226e-12 0 0)
(1.23528e-12 0 0)
(1.10418e-12 0 0)
(1.24923e-12 0 0)
(1.40317e-12 0 0)
(1.57895e-12 0 0)
(1.64457e-12 0 0)
(1.8481e-12 0 0)
(1.72674e-12 0 0)
(1.92124e-12 0 0)
(1.82676e-12 0 0)
(1.63176e-12 0 0)
(1.88528e-12 0 0)
(2.00979e-12 0 0)
(1.92331e-12 0 0)
(2.19235e-12 0 0)
(2.5052e-12 0 0)
(2.25889e-12 0 0)
(2.09794e-12 0 0)
(2.09757e-12 0 0)
(1.93808e-12 0 0)
(2.22903e-12 0 0)
(2.50641e-12 0 0)
(2.41742e-12 0 0)
(2.01893e-12 0 0)
(2.03867e-12 0 0)
(1.85697e-12 0 0)
(1.9449e-12 0 0)
(2.19118e-12 0 0)
(2.07627e-12 0 0)
)
;

boundaryField
{
    sides
    {
        type            zeroGradient;
    }
    empty
    {
        type            empty;
    }
}


// ************************************************************************* //
