/*--------------------------------*- C++ -*----------------------------------*\
  =========                 |
  \\      /  F ield         | OpenFOAM: The Open Source CFD Toolbox
   \\    /   O peration     | Website:  https://openfoam.org
    \\  /    A nd           | Version:  13
     \\/     M anipulation  |
\*---------------------------------------------------------------------------*/
FoamFile
{
    format      ascii;
    class       volScalarField;
    location    "0.006";
    object      mag(U);
}
// * * * * * * * * * * * * * * * * * * * * * * * * * * * * * * * * * * * * * //

dimensions      [0 1 -1 0 0 0 0];

internalField   nonuniform List<scalar> 
1000
(
1.3882e-13
1.02327e-13
7.30708e-14
2.19558e-14
7.30509e-15
3.64645e-14
7.312e-14
1.02191e-13
8.77333e-14
1.09642e-13
2.19312e-13
2.85003e-13
4.60536e-13
4.97031e-13
4.45722e-13
3.50865e-13
3.43535e-13
2.85036e-13
2.92367e-13
4.53192e-13
4.53136e-13
4.53181e-13
6.86986e-13
7.89364e-13
6.9436e-13
6.1395e-13
5.33546e-13
5.48163e-13
6.13982e-13
4.45807e-13
3.65546e-13
6.87046e-13
7.96538e-13
7.52844e-13
6.94379e-13
7.74769e-13
9.20905e-13
1.10372e-12
1.22789e-12
1.02316e-12
1.07442e-12
1.05982e-12
1.08172e-12
1.00135e-12
1.06714e-12
1.14748e-12
1.1914e-12
1.38865e-12
1.35212e-12
1.21327e-12
9.5018e-13
8.40532e-13
8.03996e-13
7.38248e-13
7.96626e-13
8.7716e-13
1.17675e-12
1.27893e-12
1.23523e-12
1.12563e-12
1.14751e-12
1.11823e-12
1.19142e-12
1.3229e-12
1.24242e-12
1.03058e-12
8.69803e-13
6.94315e-13
6.13987e-13
7.23603e-13
7.01636e-13
6.50563e-13
7.60057e-13
7.52804e-13
6.79738e-13
6.13965e-13
5.33513e-13
5.11654e-13
4.97048e-13
5.04286e-13
4.75219e-13
6.06597e-13
5.91869e-13
5.40888e-13
4.31306e-13
5.77406e-13
7.52797e-13
7.82124e-13
8.47759e-13
7.60052e-13
6.65137e-13
5.92036e-13
4.09285e-13
3.2899e-13
2.77755e-13
8.03624e-14
1.45355e-14
2.41149e-13
3.36053e-13
1.68115e-13
1.60977e-13
2.7767e-13
2.04677e-13
2.70416e-13
3.72719e-13
3.80052e-13
2.41217e-13
1.82665e-13
4.3854e-14
5.11299e-14
7.3065e-14
1.82625e-13
9.49837e-14
1.45961e-13
5.84841e-14
2.9367e-14
5.84085e-14
7.28454e-15
1.09621e-13
1.53452e-13
4.38418e-14
2.91547e-14
8.77255e-14
1.6075e-13
9.51526e-14
2.55676e-13
1.68158e-13
2.04631e-13
2.33764e-13
9.5031e-14
1.45437e-14
2.19301e-13
2.33898e-13
2.85e-13
3.58158e-13
3.28917e-13
3.21498e-13
2.7774e-13
2.3399e-13
2.63146e-13
2.11876e-13
3.07062e-13
3.8732e-13
4.23958e-13
4.1645e-13
2.63171e-13
2.26712e-13
4.53147e-13
5.99253e-13
5.48371e-13
7.08783e-13
7.01662e-13
7.3823e-13
6.65018e-13
5.1164e-13
4.095e-13
5.11493e-13
4.3853e-13
3.36235e-13
3.28908e-13
3.58199e-13
3.28737e-13
1.31525e-13
7.18261e-15
1.09662e-13
1.60761e-13
1.82796e-13
3.28816e-13
3.94687e-13
3.58232e-13
4.75085e-13
4.82304e-13
4.67763e-13
4.02119e-13
5.26001e-13
5.04379e-13
5.26299e-13
6.14017e-13
5.62878e-13
6.50463e-13
7.23322e-13
6.57814e-13
6.21315e-13
6.72476e-13
7.08951e-13
5.55522e-13
4.67875e-13
7.01676e-13
8.98873e-13
8.33237e-13
8.84391e-13
8.18609e-13
8.69723e-13
9.50164e-13
1.00148e-12
1.18404e-12
1.35935e-12
1.41798e-12
1.38137e-12
1.36661e-12
1.26455e-12
1.18408e-12
1.05247e-12
1.05263e-12
1.14019e-12
1.32278e-12
1.2572e-12
1.23515e-12
1.27175e-12
1.4033e-12
1.44718e-12
1.33763e-12
1.31565e-12
1.42511e-12
1.5422e-12
1.57144e-12
1.60064e-12
1.58602e-12
1.41064e-12
6.06806e-13
5.11727e-13
4.27585e-12
1.16286e-11
2.72551e-11
6.01896e-11
1.29398e-10
2.72676e-10
5.70677e-10
1.18479e-09
2.44089e-09
5.0004e-09
1.01741e-08
2.05714e-08
4.13131e-08
8.24178e-08
1.63284e-07
3.21237e-07
6.27441e-07
1.21653e-06
2.34096e-06
4.46994e-06
8.46753e-06
1.59098e-05
2.96428e-05
5.47534e-05
0.000100234
0.000181805
0.000326609
0.000580934
0.00102264
0.00178079
0.00306603
0.00521618
0.00876287
0.0145248
0.0237323
0.0381815
0.0604078
0.0938485
0.142948
0.213148
0.310709
0.442373
0.614906
0.834614
1.10692
1.43609
1.82505
2.27539
2.78744
3.36043
3.9927
4.68185
5.42501
6.21897
7.06034
7.94566
8.87155
9.83471
10.832
11.8604
12.9173
14
15.1063
16.234
17.3812
18.546
19.7271
20.9227
22.1318
23.3531
24.5856
25.8283
27.0803
28.3409
29.6094
30.8852
32.1676
33.4561
34.7503
36.0498
37.3542
38.663
39.9761
41.293
42.6135
43.9374
45.2645
46.5945
47.9272
49.2625
50.6001
51.94
53.282
54.626
55.9718
57.3194
58.6685
60.0192
61.3713
62.7247
64.0794
65.4353
66.7922
68.1502
69.5091
70.8688
72.2294
73.5908
74.9528
76.3154
77.6787
79.0424
80.4065
81.771
83.1359
84.501
85.8663
87.2317
88.5971
89.9626
91.3279
92.693
94.0578
95.4223
96.7862
98.1495
99.512
100.874
102.234
103.593
104.951
106.307
107.661
109.013
110.361
111.707
113.048
114.386
115.718
117.043
118.362
119.672
120.971
122.258
123.53
124.784
126.016
127.222
128.397
129.534
130.625
131.663
132.639
133.544
134.369
135.109
135.757
136.311
136.774
137.15
137.446
137.672
137.839
137.958
138.039
138.093
138.126
138.145
138.156
138.161
138.165
138.169
138.174
138.181
138.19
138.204
138.226
138.262
138.322
138.419
138.574
138.812
139.163
139.655
140.302
141.108
142.062
143.145
144.336
145.615
146.963
148.368
149.816
151.3
152.813
154.349
155.904
157.474
159.057
160.651
162.253
163.863
165.48
167.102
168.729
170.36
171.995
173.632
175.273
176.916
178.561
180.208
181.857
183.507
185.159
186.812
188.466
190.121
191.777
193.434
195.092
196.75
198.41
200.069
201.73
203.391
205.052
206.714
208.377
210.04
211.703
213.367
215.031
216.695
218.36
220.025
221.691
223.357
225.023
226.689
228.355
230.022
231.689
233.356
235.024
236.691
238.359
240.027
241.695
243.363
245.031
246.699
248.367
250.035
251.703
253.371
255.038
256.706
258.373
260.039
261.705
263.371
265.035
266.699
268.361
270.022
271.682
273.34
274.995
276.648
278.298
279.944
281.586
283.222
284.852
286.475
288.088
289.69
291.279
292.854
294.411
295.947
297.45
298.908
300.305
301.626
302.851
303.958
304.926
305.737
306.383
306.865
307.2
307.412
307.536
307.6
307.63
307.643
307.648
307.65
307.651
307.652
307.653
307.653
307.651
307.648
307.645
307.644
307.642
307.641
307.64
307.64
307.639
307.639
307.639
307.639
307.64
307.64
307.64
307.64
307.64
307.641
307.641
307.641
307.641
307.642
307.642
307.642
307.642
307.643
307.643
307.643
307.643
307.643
307.643
307.643
307.643
307.643
307.644
307.644
307.644
307.644
307.644
307.644
307.644
307.644
307.644
307.644
307.644
307.644
307.644
307.644
307.644
307.644
307.644
307.644
307.645
307.645
307.645
307.645
307.645
307.645
307.645
307.645
307.645
307.645
307.645
307.645
307.645
307.645
307.645
307.645
307.645
307.645
307.645
307.645
307.645
307.645
307.645
307.645
307.645
307.645
307.645
307.645
307.645
307.645
307.645
307.645
307.645
307.645
307.645
307.645
307.645
307.645
307.645
307.645
307.645
307.645
307.645
307.645
307.644
307.644
307.644
307.644
307.644
307.644
307.644
307.644
307.644
307.644
307.644
307.644
307.644
307.644
307.644
307.644
307.644
307.644
307.644
307.644
307.644
307.644
307.644
307.644
307.644
307.644
307.644
307.644
307.644
307.644
307.644
307.644
307.644
307.644
307.644
307.643
307.643
307.643
307.643
307.643
307.643
307.643
307.643
307.643
307.643
307.643
307.643
307.643
307.643
307.643
307.643
307.643
307.644
307.644
307.645
307.646
307.648
307.651
307.654
307.657
307.661
307.665
307.669
307.673
307.675
307.675
307.673
307.669
307.664
307.658
307.652
307.648
307.645
307.643
307.642
307.642
307.642
307.642
307.642
307.642
307.642
307.641
307.642
307.641
307.641
307.641
307.641
307.641
307.641
307.641
307.641
307.641
307.641
307.64
307.64
307.64
307.64
307.64
307.64
307.64
307.64
307.64
307.64
307.64
307.64
307.639
307.639
307.639
307.639
307.639
307.639
307.639
307.639
307.639
307.639
307.638
307.638
307.638
307.638
307.638
307.638
307.638
307.638
307.638
307.637
307.637
307.637
307.637
307.637
307.637
307.637
307.637
307.636
307.636
307.636
307.636
307.636
307.636
307.636
307.636
307.635
307.635
307.635
307.635
307.635
307.635
307.634
307.634
307.634
307.634
307.634
307.634
307.634
307.633
307.633
307.633
307.633
307.633
307.632
307.632
307.632
307.632
307.632
307.632
307.631
307.631
307.631
307.631
307.631
307.63
307.63
307.63
307.63
307.629
307.629
307.629
307.629
307.629
307.628
307.628
307.628
307.628
307.627
307.627
307.627
307.626
307.626
307.626
307.626
307.625
307.625
307.625
307.624
307.624
307.624
307.623
307.623
307.623
307.622
307.622
307.621
307.621
307.62
307.62
307.619
307.62
307.617
307.619
307.613
307.62
307.606
307.618
307.586
307.604
307.527
307.537
307.337
307.256
306.76
306.025
304.787
300.773
296.701
280.268
261.344
202.494
108.209
22.8693
3.96401
0.651664
0.10637
0.0173434
0.00282708
0.000460828
7.51174e-05
1.22446e-05
1.99594e-06
3.25348e-07
5.30328e-08
8.64397e-09
1.40764e-09
2.28412e-10
3.54677e-11
4.3563e-12
1.01558e-12
1.8055e-12
2.08292e-12
1.98089e-12
1.80504e-12
1.74704e-12
1.68103e-12
1.53467e-12
1.44019e-12
1.53458e-12
1.74694e-12
2.03177e-12
2.20762e-12
2.45524e-12
2.36844e-12
2.30203e-12
2.36139e-12
2.53603e-12
2.3826e-12
2.14167e-12
2.09021e-12
1.93698e-12
1.83527e-12
1.74599e-12
1.56424e-12
1.45442e-12
1.50576e-12
1.57148e-12
1.71754e-12
1.78991e-12
1.63022e-12
1.55731e-12
1.56397e-12
1.58609e-12
1.64497e-12
1.66635e-12
1.79102e-12
2.00313e-12
2.24213e-12
2.08366e-12
1.95857e-12
1.74608e-12
1.60201e-12
1.81271e-12
1.97299e-12
2.05931e-12
1.77795e-12
2.03135e-12
2.24299e-12
2.1359e-12
2.07591e-12
2.03091e-12
1.6372e-12
1.58029e-12
1.87651e-12
1.84242e-12
2.03916e-12
1.90681e-12
1.71069e-12
1.90825e-12
2.05311e-12
1.92271e-12
2.03335e-12
2.34426e-12
2.36162e-12
2.4703e-12
2.41048e-12
2.30296e-12
2.33845e-12
2.20663e-12
2.06127e-12
1.7926e-12
1.81184e-12
1.81221e-12
1.49902e-12
1.33658e-12
9.86725e-13
6.43617e-13
3.38288e-13
4.65864e-13
1.38229e-14
2.63397e-13
4.03416e-13
7.44491e-13
8.18847e-13
9.57325e-13
1.16918e-12
1.3068e-12
9.66284e-13
7.89165e-13
7.45073e-13
7.61866e-13
8.18026e-13
8.62527e-13
7.67242e-13
7.75547e-13
7.87745e-13
5.9208e-13
7.39304e-13
1.00821e-12
1.12611e-12
1.33692e-12
1.51966e-12
1.61418e-12
1.49977e-12
1.72449e-12
1.80537e-12
1.84286e-12
2.2431e-12
2.43364e-12
2.47063e-12
2.58003e-12
2.62982e-12
2.44347e-12
2.59339e-12
2.65977e-12
2.34858e-12
2.63794e-12
2.74777e-12
2.68375e-12
3.03284e-12
3.24281e-12
3.09962e-12
3.03366e-12
3.13537e-12
3.35623e-12
3.40574e-12
3.47833e-12
3.53545e-12
2.99882e-12
3.00288e-12
2.69777e-12
2.5519e-12
2.60732e-12
2.4054e-12
)
;

boundaryField
{
    sides
    {
        type            calculated;
        value           nonuniform List<scalar> 2(2.4054e-12 1.3882e-13);
    }
    empty
    {
        type            empty;
    }
}


// ************************************************************************* //
