/*--------------------------------*- C++ -*----------------------------------*\
  =========                 |
  \\      /  F ield         | OpenFOAM: The Open Source CFD Toolbox
   \\    /   O peration     | Website:  https://openfoam.org
    \\  /    A nd           | Version:  13
     \\/     M anipulation  |
\*---------------------------------------------------------------------------*/
FoamFile
{
    format      ascii;
    class       volScalarField;
    location    "0.006";
    object      p;
}
// * * * * * * * * * * * * * * * * * * * * * * * * * * * * * * * * * * * * * //

dimensions      [1 -1 -2 0 0 0 0];

internalField   nonuniform List<scalar> 
1000
(
100000
100000
100000
100000
100000
100000
100000
100000
100000
100000
100000
100000
100000
100000
100000
100000
100000
100000
100000
100000
100000
100000
100000
100000
100000
100000
100000
100000
100000
100000
100000
100000
100000
100000
100000
100000
100000
100000
100000
100000
100000
100000
100000
100000
100000
100000
100000
100000
100000
100000
100000
100000
100000
100000
100000
100000
100000
100000
100000
100000
100000
100000
100000
100000
100000
100000
100000
100000
100000
100000
100000
100000
100000
100000
100000
100000
100000
100000
100000
100000
100000
100000
100000
100000
100000
100000
100000
100000
100000
100000
100000
100000
100000
100000
100000
100000
100000
100000
100000
100000
100000
100000
100000
100000
100000
100000
100000
100000
100000
100000
100000
100000
100000
100000
100000
100000
100000
100000
100000
100000
100000
100000
100000
100000
100000
100000
100000
100000
100000
100000
100000
100000
100000
100000
100000
100000
100000
100000
100000
100000
100000
100000
100000
100000
100000
100000
100000
100000
100000
100000
100000
100000
100000
100000
100000
100000
100000
100000
100000
100000
100000
100000
100000
100000
100000
100000
100000
100000
100000
100000
100000
100000
100000
100000
100000
100000
100000
100000
100000
100000
100000
100000
100000
100000
100000
100000
100000
100000
100000
100000
100000
100000
100000
100000
100000
100000
100000
100000
100000
100000
100000
100000
100000
100000
100000
100000
100000
100000
100000
100000
100000
100000
100000
100000
100000
100000
100000
100000
100000
100000
100000
100000
100000
100000
100000
100000
100000
100000
100000
100000
100000
100000
100000
100000
100000
100000
100000
100000
100000
100000
100000
100000
100000
100000
100000
100000
99999.9
99999.9
99999.8
99999.6
99999.3
99998.9
99998.1
99996.7
99994.6
99991.1
99985.7
99977.5
99965
99946.6
99920.5
99884.1
99835
99770.7
99688.8
99587.5
99465.1
99320.6
99153.6
98964
98752.1
98518.9
98265.1
97992.1
97701.2
97393.7
97071
96734.5
96385.6
96025.4
95655.2
95276
94888.8
94494.7
94094.3
93688.6
93278.1
92863.5
92445.3
92024.2
91600.4
91174.4
90746.7
90317.4
89887
89455.7
89023.7
88591.2
88158.5
87725.7
87293
86860.5
86428.4
85996.7
85565.6
85135.2
84705.5
84276.7
83848.9
83422
82996.1
82571.4
82147.8
81725.5
81304.3
80884.5
80466
80048.8
79633.1
79218.7
78805.8
78394.4
77984.5
77576
77169.1
76763.8
76360
75957.8
75557.2
75158.2
74760.9
74365.2
73971.1
73578.7
73187.9
72798.9
72411.6
72026
71642.1
71259.9
70879.5
70500.9
70124.1
69749.1
69375.9
69004.5
68635.1
68267.5
67901.9
67538.2
67176.6
66817
66459.5
66104.2
65751.2
65400.5
65052.2
64706.5
64363.6
64023.5
63686.5
63352.9
63023
62697.2
62375.9
62059.8
61749.4
61445.7
61149.7
60862.7
60586
60321.3
60070.5
59835.6
59618.4
59420.8
59244.4
59090.2
58958.3
58848.6
58759.6
58689.6
58636.2
58596.8
58568.7
58549.5
58536.9
58529.1
58524.5
58521.9
58520.6
58519.8
58519
58518
58516.8
58514.9
58512.1
58507.7
58500.5
58488.6
58469.2
58438.4
58391
58321.1
58223.6
58095.3
57936
57748
57535.3
57302.4
57053.4
56791.9
56520.9
56242.7
55959
55671.4
55380.9
55088.4
54794.6
54499.9
54204.9
53909.8
53614.9
53320.5
53026.7
52733.6
52441.5
52150.3
51860.2
51571.2
51283.4
50996.9
50711.6
50427.6
50144.9
49863.6
49583.6
49305
49027.8
48752.1
48477.7
48204.7
47933.2
47663
47394.3
47127
46861.1
46596.7
46333.6
46072
45811.8
45552.9
45295.5
45039.5
44784.9
44531.6
44279.8
44029.3
43780.2
43532.5
43286.1
43041.1
42797.4
42555.1
42314.2
42074.5
41836.2
41599.3
41363.6
41129.3
40896.3
40664.6
40434.2
40205.1
39977.3
39750.8
39525.6
39301.8
39079.2
38857.9
38638
38419.4
38202.1
37986.1
37771.4
37558.2
37346.2
37135.7
36926.6
36719
36512.9
36308.3
36105.3
35903.9
35704.4
35506.7
35311
35117.5
34926.5
34737.9
34552.3
34369.2
34189.8
34015.2
33846.8
33686.1
33534.9
33395.3
33269.7
33160.2
33068.6
32996
32941.8
32904.3
32880.5
32866.7
32859.5
32856
32854.6
32854
32853.8
32853.7
32853.6
32853.5
32853.4
32853.7
32854.2
32854.4
32854.7
32854.9
32855
32855.1
32855.1
32855.2
32855.2
32855.2
32855.2
32855.1
32855.1
32855.1
32855
32855
32854.9
32854.9
32854.9
32854.8
32854.8
32854.7
32854.7
32854.7
32854.6
32854.6
32854.6
32854.5
32854.5
32854.5
32854.5
32854.5
32854.4
32854.4
32854.4
32854.4
32854.4
32854.3
32854.3
32854.3
32854.3
32854.3
32854.2
32854.2
32854.2
32854.2
32854.2
32854.2
32854.1
32854.1
32854.1
32854.1
32854.1
32854.1
32854
32854
32854
32854
32854
32854
32854
32853.9
32853.9
32853.9
32853.9
32853.9
32853.9
32853.9
32853.8
32853.8
32853.8
32853.8
32853.8
32853.8
32853.8
32853.7
32853.7
32853.7
32853.7
32853.7
32853.7
32853.7
32853.6
32853.6
32853.6
32853.6
32853.6
32853.6
32853.6
32853.6
32853.5
32853.5
32853.5
32853.5
32853.5
32853.5
32853.5
32853.5
32853.4
32853.4
32853.4
32853.4
32853.4
32853.4
32853.4
32853.4
32853.4
32853.3
32853.3
32853.3
32853.3
32853.3
32853.3
32853.3
32853.3
32853.3
32853.2
32853.2
32853.2
32853.2
32853.2
32853.2
32853.2
32853.2
32853.2
32853.2
32853.1
32853.1
32853.1
32853.1
32853.1
32853.1
32853.1
32853.1
32853
32853
32853
32853
32853
32853
32853
32853
32853
32853
32853
32853
32853
32853
32853.1
32853.2
32853.4
32853.7
32854
32854.4
32854.9
32855.5
32856.1
32856.7
32857.2
32857.5
32857.6
32857.4
32856.9
32856.1
32855.3
32854.5
32853.8
32853.3
32853
32852.8
32852.8
32852.7
32852.7
32852.7
32852.7
32852.7
32852.6
32852.7
32852.6
32852.6
32852.6
32852.6
32852.6
32852.6
32852.6
32852.6
32852.6
32852.5
32852.5
32852.5
32852.5
32852.5
32852.5
32852.5
32852.5
32852.5
32852.4
32852.4
32852.4
32852.4
32852.4
32852.4
32852.4
32852.4
32852.4
32852.3
32852.3
32852.3
32852.3
32852.3
32852.3
32852.3
32852.3
32852.2
32852.2
32852.2
32852.2
32852.2
32852.2
32852.2
32852.1
32852.1
32852.1
32852.1
32852.1
32852.1
32852.1
32852
32852
32852
32852
32852
32852
32851.9
32851.9
32851.9
32851.9
32851.9
32851.9
32851.8
32851.8
32851.8
32851.8
32851.8
32851.7
32851.7
32851.7
32851.7
32851.7
32851.6
32851.6
32851.6
32851.6
32851.6
32851.5
32851.5
32851.5
32851.5
32851.5
32851.4
32851.4
32851.4
32851.4
32851.3
32851.3
32851.3
32851.3
32851.2
32851.2
32851.2
32851.2
32851.1
32851.1
32851.1
32851.1
32851
32851
32851
32850.9
32850.9
32850.9
32850.8
32850.8
32850.8
32850.7
32850.7
32850.7
32850.6
32850.6
32850.6
32850.5
32850.5
32850.4
32850.4
32850.4
32850.3
32850.3
32850.2
32850.1
32850.2
32849.9
32850.1
32849.6
32850.1
32849
32850.3
32847.3
32850.6
32842.6
32849.8
32828
32842.5
32783
32797.4
32633.4
32585.3
32057
31706.2
29909.1
28099
22812
16172.4
11740.8
10898.6
10754.8
10731.2
10727.4
10726.7
10726.6
10726.6
10726.6
10726.6
10726.6
10726.6
10726.6
10726.6
10726.6
10726.6
10726.6
10726.6
10726.6
10726.6
10726.6
10726.6
10726.6
10726.6
10726.6
10726.6
10726.6
10726.6
10726.6
10726.6
10726.6
10726.6
10726.6
10726.6
10726.6
10726.6
10726.6
10726.6
10726.6
10726.6
10726.6
10726.6
10726.6
10726.6
10726.6
10726.6
10726.6
10726.6
10726.6
10726.6
10726.6
10726.6
10726.6
10726.6
10726.6
10726.6
10726.6
10726.6
10726.6
10726.6
10726.6
10726.6
10726.6
10726.6
10726.6
10726.6
10726.6
10726.6
10726.6
10726.6
10726.6
10726.6
10726.6
10726.6
10726.6
10726.6
10726.6
10726.6
10726.6
10726.6
10726.6
10726.6
10726.6
10726.6
10726.6
10726.6
10726.6
10726.6
10726.6
10726.6
10726.6
10726.6
10726.6
10726.6
10726.6
10726.6
10726.6
10726.6
10726.6
10726.6
10726.6
10726.6
10726.6
10726.6
10726.6
10726.6
10726.6
10726.6
10726.6
10726.6
10726.6
10726.6
10726.6
10726.6
10726.6
10726.6
10726.6
10726.6
10726.6
10726.6
10726.6
10726.6
10726.6
10726.6
10726.6
10726.6
10726.6
10726.6
10726.6
10726.6
10726.6
10726.6
10726.6
10726.6
10726.6
10726.6
10726.6
10726.6
10726.6
10726.6
10726.6
10726.6
10726.6
10726.6
10726.6
10726.6
10726.6
10726.6
10726.6
10726.6
10726.6
10726.6
)
;

boundaryField
{
    sides
    {
        type            zeroGradient;
    }
    empty
    {
        type            empty;
    }
}


// ************************************************************************* //
