/*--------------------------------*- C++ -*----------------------------------*\
  =========                 |
  \\      /  F ield         | OpenFOAM: The Open Source CFD Toolbox
   \\    /   O peration     | Website:  https://openfoam.org
    \\  /    A nd           | Version:  13
     \\/     M anipulation  |
\*---------------------------------------------------------------------------*/
FoamFile
{
    format      ascii;
    class       surfaceScalarField;
    location    "0.006";
    object      phi;
}
// * * * * * * * * * * * * * * * * * * * * * * * * * * * * * * * * * * * * * //

dimensions      [1 0 -1 0 0 0 0];

internalField   nonuniform List<scalar> 
999
(
-4.54747e-13
-4.54747e-13
-2.27374e-13
0
1.13687e-13
1.13687e-13
-4.54747e-13
-5.68434e-13
-3.41061e-13
-5.68434e-13
-1.36424e-12
-1.02318e-12
-2.16005e-12
-1.81899e-12
-1.59162e-12
-1.36424e-12
-1.25056e-12
-1.02318e-12
-1.25056e-12
-2.04636e-12
-1.47793e-12
-2.16005e-12
-3.29692e-12
-2.95586e-12
-2.6148e-12
-2.04636e-12
-2.04636e-12
-2.27374e-12
-2.27374e-12
-1.25056e-12
-1.93268e-12
-3.18323e-12
-3.06954e-12
-2.72848e-12
-2.38742e-12
-3.63798e-12
-3.86535e-12
-4.88853e-12
-4.3201e-12
-4.3201e-12
-4.09273e-12
-4.3201e-12
-4.3201e-12
-3.75167e-12
-4.43379e-12
-4.66116e-12
-5.22959e-12
-5.68434e-12
-5.11591e-12
-4.43379e-12
-3.52429e-12
-3.18323e-12
-2.95586e-12
-3.06954e-12
-3.06954e-12
-4.09273e-12
-5.22959e-12
-5.11591e-12
-4.66116e-12
-4.54747e-12
-4.54747e-12
-4.54747e-12
-5.11591e-12
-5.22959e-12
-4.54747e-12
-3.75167e-12
-2.84217e-12
-2.50111e-12
-2.6148e-12
-2.72848e-12
-2.6148e-12
-2.84217e-12
-2.84217e-12
-2.84217e-12
-2.38742e-12
-2.16005e-12
-1.93268e-12
-1.93268e-12
-2.04636e-12
-1.7053e-12
-2.04636e-12
-2.6148e-12
-2.16005e-12
-1.81899e-12
-1.81899e-12
-2.72848e-12
-2.95586e-12
-3.29692e-12
-2.95586e-12
-3.18323e-12
-2.50111e-12
-1.93268e-12
-1.36424e-12
-1.13687e-12
-7.95808e-13
3.41061e-13
-3.41061e-13
-1.36424e-12
-9.09495e-13
-6.82121e-13
-9.09495e-13
-1.02318e-12
-9.09495e-13
-1.36424e-12
-1.47793e-12
-1.47793e-12
-7.95808e-13
-4.54747e-13
1.13687e-13
2.27374e-13
4.54747e-13
5.68434e-13
-2.27374e-13
-4.54747e-13
-1.13687e-13
-3.41061e-13
1.13687e-13
2.27374e-13
5.68434e-13
5.68434e-13
-1.13687e-13
-3.41061e-13
7.95808e-13
3.41061e-13
6.82121e-13
1.13687e-12
4.54747e-13
1.13687e-12
6.82121e-13
1.13687e-13
0
1.25056e-12
6.82121e-13
1.7053e-12
9.09495e-13
1.59162e-12
1.02318e-12
1.36424e-12
6.82121e-13
1.25056e-12
7.95808e-13
1.59162e-12
1.36424e-12
1.81899e-12
1.25056e-12
1.02318e-12
1.13687e-12
2.27374e-12
2.04636e-12
2.38742e-12
2.72848e-12
2.84217e-12
3.06954e-12
2.27374e-12
1.7053e-12
1.81899e-12
2.27374e-12
1.13687e-12
1.47793e-12
1.36424e-12
1.36424e-12
1.02318e-12
2.27374e-13
-3.41061e-13
-4.54747e-13
-7.95808e-13
-7.95808e-13
-1.7053e-12
-1.02318e-12
-1.59162e-12
-1.81899e-12
-1.81899e-12
-1.7053e-12
-1.81899e-12
-1.93268e-12
-1.93268e-12
-2.38742e-12
-2.38742e-12
-2.27374e-12
-2.72848e-12
-2.84217e-12
-2.38742e-12
-2.84217e-12
-2.27374e-12
-2.84217e-12
-1.7053e-12
-2.16005e-12
-3.29692e-12
-3.86535e-12
-3.06954e-12
-3.52429e-12
-2.95586e-12
-3.86535e-12
-3.41061e-12
-4.43379e-12
-5.00222e-12
-5.79803e-12
-5.45697e-12
-5.45697e-12
-5.22959e-12
-4.66116e-12
-4.43379e-12
-3.97904e-12
-4.54747e-12
-4.77485e-12
-5.34328e-12
-4.54747e-12
-5.11591e-12
-5.00222e-12
-5.91172e-12
-5.45697e-12
-5.45697e-12
-5.22959e-12
-6.13909e-12
-5.68434e-12
-6.59384e-12
-6.0254e-12
-6.36646e-12
-4.20641e-12
-7.95808e-13
7.84439e-12
2.78533e-11
6.94627e-11
1.58025e-10
3.43334e-10
7.30324e-10
1.53329e-09
3.19505e-09
6.6068e-09
1.35744e-08
2.77107e-08
5.62076e-08
1.13263e-07
2.26718e-07
4.50745e-07
8.8994e-07
1.74464e-06
3.39544e-06
6.55924e-06
1.25748e-05
2.39192e-05
4.5134e-05
8.44639e-05
0.000156727
0.000288272
0.00052544
0.000948786
0.00169662
0.00300337
0.00526077
0.00911377
0.015607
0.026402
0.0440898
0.0726193
0.117854
0.188235
0.295479
0.455156
0.686924
1.01418
1.463
2.06046
2.83261
3.80256
4.98897
6.40514
8.05865
9.95156
12.081
14.4399
17.0178
19.802
22.7781
25.9307
29.2441
32.7029
36.2919
39.9967
43.8039
47.7008
51.6757
55.7181
59.8182
63.9672
68.157
72.3807
76.6316
80.904
85.1926
89.4927
93.8003
98.1114
102.423
106.731
111.034
115.33
119.615
123.887
128.147
132.39
136.617
140.825
145.015
149.183
153.331
157.456
161.559
165.638
169.692
173.722
177.727
181.705
185.658
189.584
193.483
197.355
201.2
205.016
208.805
212.566
216.299
220.003
223.679
227.326
230.944
234.534
238.094
241.626
245.128
248.601
252.045
255.46
258.846
262.202
265.529
268.827
272.096
275.335
278.544
281.724
284.875
287.996
291.087
294.148
297.18
300.182
303.154
306.095
309.007
311.887
314.737
317.555
320.342
323.097
325.819
328.508
331.162
333.781
336.364
338.908
341.413
343.876
346.294
348.663
350.98
353.239
355.435
357.559
359.603
361.558
363.41
365.148
366.759
368.231
369.552
370.716
371.719
372.562
373.252
373.801
374.225
374.542
374.77
374.929
375.035
375.102
375.143
375.165
375.175
375.182
375.187
375.193
375.201
375.212
375.228
375.253
375.293
375.36
375.468
375.643
375.918
376.332
376.925
377.728
378.752
379.983
381.397
382.958
384.631
386.388
388.203
390.056
391.932
393.819
395.709
397.593
399.467
401.326
403.167
404.987
406.785
408.559
410.307
412.029
413.725
415.392
417.032
418.644
420.227
421.782
423.308
424.805
426.274
427.715
429.127
430.51
431.866
433.193
434.492
435.764
437.009
438.226
439.415
440.578
441.715
442.824
443.908
444.965
445.997
447.003
447.984
448.939
449.87
450.776
451.657
452.515
453.348
454.158
454.944
455.706
456.446
457.162
457.856
458.528
459.177
459.805
460.41
460.994
461.557
462.099
462.619
463.119
463.598
464.057
464.496
464.915
465.314
465.694
466.055
466.396
466.719
467.022
467.308
467.575
467.823
468.054
468.268
468.463
468.642
468.803
468.948
469.076
469.188
469.283
469.363
469.427
469.477
469.511
469.531
469.537
469.53
469.511
469.481
469.44
469.392
469.338
469.281
469.225
469.173
469.127
469.089
469.061
469.041
469.029
469.021
469.017
469.015
469.014
469.014
469.014
469.013
469.013
469.013
469.013
469.012
469.011
469.011
469.01
469.01
469.01
469.009
469.009
469.009
469.009
469.009
469.008
469.008
469.008
469.008
469.008
469.008
469.008
469.007
469.007
469.007
469.007
469.007
469.007
469.007
469.007
469.006
469.006
469.006
469.006
469.006
469.006
469.005
469.005
469.005
469.005
469.005
469.005
469.004
469.004
469.004
469.004
469.004
469.003
469.003
469.003
469.003
469.002
469.002
469.002
469.002
469.001
469.001
469
469
469
468.999
468.999
468.998
468.998
468.998
468.997
468.997
468.996
468.996
468.996
468.995
468.995
468.994
468.994
468.994
468.993
468.993
468.992
468.992
468.991
468.991
468.99
468.989
468.989
468.988
468.988
468.987
468.987
468.986
468.985
468.985
468.984
468.983
468.983
468.982
468.981
468.981
468.98
468.979
468.979
468.978
468.977
468.976
468.976
468.975
468.974
468.973
468.973
468.972
468.971
468.97
468.969
468.968
468.967
468.966
468.966
468.965
468.964
468.963
468.962
468.961
468.96
468.959
468.958
468.957
468.956
468.955
468.954
468.952
468.951
468.95
468.948
468.946
468.943
468.939
468.933
468.925
468.914
468.897
468.872
468.836
468.782
468.704
468.592
468.432
468.206
467.89
467.455
466.863
466.066
465.008
463.625
461.842
459.577
456.746
453.265
449.058
444.063
438.242
431.59
424.142
415.976
407.223
398.058
388.697
379.388
370.394
361.975
354.364
347.748
342.237
337.852
334.524
332.108
330.425
329.292
328.554
328.085
327.795
327.62
327.517
327.46
327.429
327.412
327.405
327.403
327.402
327.401
327.402
327.403
327.405
327.408
327.41
327.412
327.412
327.413
327.412
327.412
327.412
327.412
327.411
327.41
327.41
327.409
327.408
327.407
327.406
327.405
327.404
327.403
327.402
327.402
327.401
327.4
327.4
327.399
327.398
327.398
327.397
327.397
327.396
327.396
327.395
327.395
327.394
327.394
327.393
327.393
327.392
327.392
327.391
327.391
327.39
327.39
327.389
327.389
327.388
327.388
327.388
327.387
327.387
327.386
327.386
327.385
327.385
327.384
327.384
327.384
327.383
327.383
327.382
327.382
327.381
327.381
327.381
327.38
327.38
327.379
327.379
327.378
327.378
327.377
327.377
327.377
327.376
327.376
327.375
327.375
327.374
327.374
327.373
327.373
327.372
327.372
327.371
327.371
327.37
327.37
327.369
327.368
327.368
327.367
327.367
327.366
327.366
327.365
327.364
327.364
327.363
327.363
327.362
327.361
327.361
327.36
327.359
327.359
327.358
327.357
327.356
327.356
327.355
327.354
327.353
327.352
327.351
327.349
327.349
327.346
327.346
327.34
327.341
327.322
327.322
327.265
327.246
327.068
326.949
326.404
325.707
323.71
320.777
312.915
300.797
272.917
222.416
131.193
30.1941
5.42454
0.904067
0.148242
0.0242058
0.00394748
0.000643548
0.000104906
1.71006e-05
2.78751e-06
4.54381e-07
7.40663e-08
1.20729e-08
1.96736e-09
3.20128e-10
5.14433e-11
7.63123e-12
4.12115e-13
-7.81597e-13
-9.66338e-13
-1.03739e-12
-8.95284e-13
-8.95284e-13
-8.52651e-13
-8.10019e-13
-6.82121e-13
-7.24754e-13
-7.95808e-13
-9.09495e-13
-1.08002e-12
-1.12266e-12
-1.19371e-12
-1.15108e-12
-1.16529e-12
-1.22213e-12
-1.23634e-12
-1.06581e-12
-1.0516e-12
-9.9476e-13
-9.52127e-13
-8.95284e-13
-8.3844e-13
-6.96332e-13
-7.38964e-13
-7.38964e-13
-8.10019e-13
-8.52651e-13
-8.66862e-13
-7.81597e-13
-8.10019e-13
-7.95808e-13
-8.10019e-13
-8.2423e-13
-8.3844e-13
-9.80549e-13
-1.03739e-12
-1.08002e-12
-1.00897e-12
-9.52127e-13
-7.95808e-13
-8.66862e-13
-9.37916e-13
-9.66338e-13
-9.52127e-13
-9.23706e-13
-1.06581e-12
-1.10845e-12
-1.06581e-12
-9.9476e-13
-8.66862e-13
-7.95808e-13
-8.66862e-13
-9.23706e-13
-9.66338e-13
-9.9476e-13
-8.3844e-13
-8.81073e-13
-9.66338e-13
-9.80549e-13
-1.03739e-12
-1.12266e-12
-1.13687e-12
-1.22213e-12
-1.19371e-12
-1.13687e-12
-1.15108e-12
-1.10845e-12
-1.0516e-12
-1.02318e-12
-8.95284e-13
-9.09495e-13
-7.67386e-13
-7.10543e-13
-5.68434e-13
-3.97904e-13
-3.12639e-13
-1.98952e-13
-1.27898e-13
1.27898e-13
1.42109e-13
2.84217e-13
3.83693e-13
4.26326e-13
4.68958e-13
6.11067e-13
5.96856e-13
4.26326e-13
3.55271e-13
3.55271e-13
4.12115e-13
4.26326e-13
3.83693e-13
3.55271e-13
3.83693e-13
2.98428e-13
3.2685e-13
4.54747e-13
4.9738e-13
6.11067e-13
7.24754e-13
7.53175e-13
7.38964e-13
8.10019e-13
8.66862e-13
9.09495e-13
1.02318e-12
1.1795e-12
1.20792e-12
1.29319e-12
1.29319e-12
1.25056e-12
1.25056e-12
1.3074e-12
1.27898e-12
1.25056e-12
1.32161e-12
1.33582e-12
1.42109e-12
1.52056e-12
1.56319e-12
1.52056e-12
1.52056e-12
1.64846e-12
1.73372e-12
1.69109e-12
1.76215e-12
1.62004e-12
1.47793e-12
1.4353e-12
1.3074e-12
1.27898e-12
1.22213e-12
)
;

boundaryField
{
    sides
    {
        type            calculated;
        value           nonuniform List<scalar> 2(1.19371e-12 4.54747e-13);
    }
    empty
    {
        type            empty;
    }
}


// ************************************************************************* //
