/*--------------------------------*- C++ -*----------------------------------*\
  =========                 |
  \\      /  F ield         | OpenFOAM: The Open Source CFD Toolbox
   \\    /   O peration     | Website:  https://openfoam.org
    \\  /    A nd           | Version:  13
     \\/     M anipulation  |
\*---------------------------------------------------------------------------*/
FoamFile
{
    format      ascii;
    class       volScalarField;
    location    "0.006";
    object      rho;
}
// * * * * * * * * * * * * * * * * * * * * * * * * * * * * * * * * * * * * * //

dimensions      [1 -3 0 0 0 0 0];

internalField   nonuniform List<scalar> 
1000
(
0.995488
0.995488
0.995488
0.995488
0.995488
0.995488
0.995488
0.995488
0.995488
0.995488
0.995488
0.995488
0.995488
0.995488
0.995488
0.995488
0.995488
0.995488
0.995488
0.995488
0.995488
0.995488
0.995488
0.995488
0.995488
0.995488
0.995488
0.995488
0.995488
0.995488
0.995488
0.995488
0.995488
0.995488
0.995488
0.995488
0.995488
0.995488
0.995488
0.995488
0.995488
0.995488
0.995488
0.995488
0.995488
0.995488
0.995488
0.995488
0.995488
0.995488
0.995488
0.995488
0.995488
0.995488
0.995488
0.995488
0.995488
0.995488
0.995488
0.995488
0.995488
0.995488
0.995488
0.995488
0.995488
0.995488
0.995488
0.995488
0.995488
0.995488
0.995488
0.995488
0.995488
0.995488
0.995488
0.995488
0.995488
0.995488
0.995488
0.995488
0.995488
0.995488
0.995488
0.995488
0.995488
0.995488
0.995488
0.995488
0.995488
0.995488
0.995488
0.995488
0.995488
0.995488
0.995488
0.995488
0.995488
0.995488
0.995488
0.995488
0.995488
0.995488
0.995488
0.995488
0.995488
0.995488
0.995488
0.995488
0.995488
0.995488
0.995488
0.995488
0.995488
0.995488
0.995488
0.995488
0.995488
0.995488
0.995488
0.995488
0.995488
0.995488
0.995488
0.995488
0.995488
0.995488
0.995488
0.995488
0.995488
0.995488
0.995488
0.995488
0.995488
0.995488
0.995488
0.995488
0.995488
0.995488
0.995488
0.995488
0.995488
0.995488
0.995488
0.995488
0.995488
0.995488
0.995488
0.995488
0.995488
0.995488
0.995488
0.995488
0.995488
0.995488
0.995488
0.995488
0.995488
0.995488
0.995488
0.995488
0.995488
0.995488
0.995488
0.995488
0.995488
0.995488
0.995488
0.995488
0.995488
0.995488
0.995488
0.995488
0.995488
0.995488
0.995488
0.995488
0.995488
0.995488
0.995488
0.995488
0.995488
0.995488
0.995488
0.995488
0.995488
0.995488
0.995488
0.995488
0.995488
0.995488
0.995488
0.995488
0.995488
0.995488
0.995488
0.995488
0.995488
0.995488
0.995488
0.995488
0.995488
0.995488
0.995488
0.995488
0.995488
0.995488
0.995488
0.995488
0.995488
0.995488
0.995488
0.995488
0.995488
0.995488
0.995488
0.995488
0.995488
0.995488
0.995488
0.995488
0.995488
0.995488
0.995488
0.995488
0.995488
0.995488
0.995488
0.995488
0.995488
0.995488
0.995488
0.995488
0.995488
0.995488
0.995488
0.995488
0.995488
0.995488
0.995488
0.995488
0.995488
0.995488
0.995488
0.995488
0.995487
0.995487
0.995487
0.995487
0.995486
0.995485
0.995483
0.99548
0.995474
0.995464
0.995449
0.995425
0.995386
0.995327
0.995239
0.995108
0.994922
0.994663
0.994314
0.993856
0.993274
0.992553
0.991681
0.990652
0.989462
0.988109
0.986598
0.984933
0.98312
0.981168
0.979086
0.976883
0.97457
0.972155
0.969649
0.967059
0.964393
0.96166
0.958867
0.95602
0.953124
0.950186
0.94721
0.9442
0.941161
0.938095
0.935007
0.931898
0.928773
0.925632
0.922478
0.919313
0.916139
0.912958
0.909769
0.906576
0.903379
0.900179
0.896977
0.893774
0.890571
0.887368
0.884166
0.880966
0.877768
0.874573
0.871381
0.868193
0.865008
0.861829
0.858653
0.855483
0.852319
0.849159
0.846006
0.842859
0.839718
0.836583
0.833456
0.830335
0.827221
0.824114
0.821015
0.817923
0.814839
0.811762
0.808694
0.805633
0.802581
0.799537
0.796501
0.793474
0.790455
0.787446
0.784445
0.781453
0.778471
0.775497
0.772534
0.76958
0.766636
0.763702
0.760778
0.757865
0.754963
0.752072
0.749193
0.746326
0.743471
0.740629
0.737801
0.734987
0.732189
0.729407
0.726643
0.723898
0.721174
0.718473
0.715799
0.713153
0.71054
0.707965
0.705434
0.702953
0.700532
0.698181
0.695912
0.693739
0.691677
0.689743
0.687954
0.686325
0.684868
0.683594
0.682504
0.681596
0.680859
0.680279
0.679837
0.67951
0.679278
0.679118
0.679013
0.678948
0.67891
0.678889
0.678877
0.678869
0.678859
0.678848
0.678833
0.678812
0.678779
0.678728
0.678644
0.678506
0.678282
0.677924
0.677374
0.676563
0.675432
0.673944
0.672096
0.669915
0.667448
0.664746
0.661857
0.658824
0.65568
0.652452
0.649162
0.645825
0.642455
0.639062
0.635653
0.632235
0.628812
0.625389
0.621968
0.618553
0.615144
0.611745
0.608356
0.604978
0.601612
0.59826
0.594921
0.591597
0.588288
0.584993
0.581714
0.57845
0.575203
0.571971
0.568755
0.565556
0.562373
0.559206
0.556056
0.552923
0.549805
0.546704
0.54362
0.540552
0.537501
0.534465
0.531447
0.528444
0.525458
0.522488
0.519534
0.516597
0.513675
0.510769
0.507879
0.505006
0.502148
0.499305
0.496479
0.493668
0.490872
0.488092
0.485328
0.482579
0.479845
0.477127
0.474424
0.471736
0.469063
0.466406
0.463763
0.461136
0.458524
0.455927
0.453345
0.450778
0.448226
0.44569
0.443169
0.440664
0.438174
0.435699
0.433241
0.430799
0.428374
0.425965
0.423573
0.4212
0.418845
0.416509
0.414194
0.411901
0.409631
0.407387
0.40517
0.402983
0.400829
0.398705
0.396624
0.394599
0.392645
0.390781
0.389027
0.387408
0.38595
0.38468
0.383618
0.382775
0.382147
0.381712
0.381435
0.381275
0.381191
0.381152
0.381135
0.381128
0.381126
0.381124
0.381123
0.381122
0.381121
0.381124
0.381127
0.38113
0.381132
0.381133
0.381134
0.381135
0.381135
0.381135
0.381135
0.381135
0.381135
0.381135
0.381134
0.381134
0.381134
0.381133
0.381133
0.381132
0.381132
0.381131
0.381131
0.381131
0.38113
0.38113
0.381129
0.381129
0.381129
0.381129
0.381128
0.381128
0.381128
0.381128
0.381127
0.381127
0.381127
0.381127
0.381126
0.381126
0.381126
0.381126
0.381126
0.381125
0.381125
0.381125
0.381125
0.381124
0.381124
0.381124
0.381123
0.381123
0.381123
0.381122
0.381122
0.381122
0.381121
0.381121
0.381121
0.38112
0.38112
0.38112
0.381119
0.381119
0.381119
0.381118
0.381118
0.381118
0.381117
0.381117
0.381117
0.381116
0.381116
0.381115
0.381115
0.381115
0.381114
0.381114
0.381113
0.381113
0.381113
0.381112
0.381112
0.381111
0.381111
0.38111
0.38111
0.381109
0.381109
0.381108
0.381108
0.381107
0.381107
0.381106
0.381106
0.381105
0.381105
0.381104
0.381103
0.381103
0.381102
0.381102
0.381101
0.381101
0.3811
0.381099
0.381099
0.381098
0.381097
0.381097
0.381096
0.381095
0.381095
0.381094
0.381093
0.381092
0.381092
0.381091
0.38109
0.381089
0.381089
0.381088
0.381087
0.381086
0.381085
0.381084
0.381083
0.381082
0.381081
0.381079
0.381077
0.381075
0.381071
0.381065
0.381058
0.381046
0.381029
0.381004
0.380967
0.380913
0.380835
0.380724
0.380566
0.380344
0.380038
0.379618
0.379051
0.378294
0.377299
0.376008
0.374358
0.372283
0.369713
0.366583
0.362839
0.358439
0.353367
0.347634
0.341287
0.334412
0.327132
0.319606
0.312023
0.30459
0.297518
0.291008
0.285229
0.280303
0.276284
0.273154
0.270826
0.269167
0.26803
0.267276
0.266791
0.266486
0.2663
0.26619
0.266126
0.266091
0.266072
0.266063
0.26606
0.266058
0.266058
0.266058
0.266059
0.26606
0.266062
0.266064
0.266066
0.266067
0.266068
0.266068
0.266068
0.266068
0.266067
0.266067
0.266067
0.266066
0.266065
0.266065
0.266064
0.266063
0.266063
0.266062
0.266061
0.266061
0.26606
0.26606
0.266059
0.266059
0.266058
0.266058
0.266058
0.266057
0.266057
0.266057
0.266056
0.266056
0.266056
0.266055
0.266055
0.266055
0.266054
0.266054
0.266054
0.266054
0.266053
0.266053
0.266053
0.266052
0.266052
0.266052
0.266052
0.266052
0.266051
0.266051
0.266051
0.266051
0.26605
0.26605
0.26605
0.26605
0.26605
0.266049
0.266049
0.266049
0.266049
0.266048
0.266048
0.266048
0.266048
0.266048
0.266047
0.266047
0.266047
0.266047
0.266047
0.266046
0.266046
0.266046
0.266046
0.266045
0.266045
0.266045
0.266045
0.266045
0.266044
0.266044
0.266044
0.266044
0.266044
0.266043
0.266043
0.266043
0.266043
0.266042
0.266042
0.266042
0.266042
0.266042
0.266041
0.266041
0.266041
0.266041
0.26604
0.26604
0.26604
0.26604
0.266039
0.266039
0.266039
0.266038
0.266038
0.266038
0.266038
0.266037
0.266037
0.266037
0.266036
0.266036
0.266035
0.266036
0.266033
0.266036
0.266029
0.266037
0.26602
0.266039
0.265992
0.266034
0.265908
0.265992
0.265646
0.265734
0.264781
0.264517
0.261422
0.259472
0.24879
0.238492
0.2062
0.163478
0.132386
0.125837
0.124668
0.124474
0.124442
0.124437
0.124436
0.124436
0.124436
0.124436
0.124436
0.124436
0.124436
0.124436
0.124436
0.124436
0.124436
0.124436
0.124436
0.124436
0.124436
0.124436
0.124436
0.124436
0.124436
0.124436
0.124436
0.124436
0.124436
0.124436
0.124436
0.124436
0.124436
0.124436
0.124436
0.124436
0.124436
0.124436
0.124436
0.124436
0.124436
0.124436
0.124436
0.124436
0.124436
0.124436
0.124436
0.124436
0.124436
0.124436
0.124436
0.124436
0.124436
0.124436
0.124436
0.124436
0.124436
0.124436
0.124436
0.124436
0.124436
0.124436
0.124436
0.124436
0.124436
0.124436
0.124436
0.124436
0.124436
0.124436
0.124436
0.124436
0.124436
0.124436
0.124436
0.124436
0.124436
0.124436
0.124436
0.124436
0.124436
0.124436
0.124436
0.124436
0.124436
0.124436
0.124436
0.124436
0.124436
0.124436
0.124436
0.124436
0.124436
0.124436
0.124436
0.124436
0.124436
0.124436
0.124436
0.124436
0.124436
0.124436
0.124436
0.124436
0.124436
0.124436
0.124436
0.124436
0.124436
0.124436
0.124436
0.124436
0.124436
0.124436
0.124436
0.124436
0.124436
0.124436
0.124436
0.124436
0.124436
0.124436
0.124436
0.124436
0.124436
0.124436
0.124436
0.124436
0.124436
0.124436
0.124436
0.124436
0.124436
0.124436
0.124436
0.124436
0.124436
0.124436
0.124436
0.124436
0.124436
0.124436
0.124436
0.124436
0.124436
0.124436
0.124436
0.124436
0.124436
0.124436
0.124436
0.124436
)
;

boundaryField
{
    sides
    {
        type            calculated;
        value           nonuniform List<scalar> 2(0.124436 0.995488);
    }
    empty
    {
        type            empty;
    }
}


// ************************************************************************* //
