/*--------------------------------*- C++ -*----------------------------------*\
  =========                 |
  \\      /  F ield         | OpenFOAM: The Open Source CFD Toolbox
   \\    /   O peration     | Website:  https://openfoam.org
    \\  /    A nd           | Version:  13
     \\/     M anipulation  |
\*---------------------------------------------------------------------------*/
FoamFile
{
    format      ascii;
    class       volScalarField;
    location    "0.006";
    object      T;
}
// * * * * * * * * * * * * * * * * * * * * * * * * * * * * * * * * * * * * * //

dimensions      [0 0 0 1 0 0 0];

internalField   nonuniform List<scalar> 
1000
(
348.432
348.432
348.432
348.432
348.432
348.432
348.432
348.432
348.432
348.432
348.432
348.432
348.432
348.432
348.432
348.432
348.432
348.432
348.432
348.432
348.432
348.432
348.432
348.432
348.432
348.432
348.432
348.432
348.432
348.432
348.432
348.432
348.432
348.432
348.432
348.432
348.432
348.432
348.432
348.432
348.432
348.432
348.432
348.432
348.432
348.432
348.432
348.432
348.432
348.432
348.432
348.432
348.432
348.432
348.432
348.432
348.432
348.432
348.432
348.432
348.432
348.432
348.432
348.432
348.432
348.432
348.432
348.432
348.432
348.432
348.432
348.432
348.432
348.432
348.432
348.432
348.432
348.432
348.432
348.432
348.432
348.432
348.432
348.432
348.432
348.432
348.432
348.432
348.432
348.432
348.432
348.432
348.432
348.432
348.432
348.432
348.432
348.432
348.432
348.432
348.432
348.432
348.432
348.432
348.432
348.432
348.432
348.432
348.432
348.432
348.432
348.432
348.432
348.432
348.432
348.432
348.432
348.432
348.432
348.432
348.432
348.432
348.432
348.432
348.432
348.432
348.432
348.432
348.432
348.432
348.432
348.432
348.432
348.432
348.432
348.432
348.432
348.432
348.432
348.432
348.432
348.432
348.432
348.432
348.432
348.432
348.432
348.432
348.432
348.432
348.432
348.432
348.432
348.432
348.432
348.432
348.432
348.432
348.432
348.432
348.432
348.432
348.432
348.432
348.432
348.432
348.432
348.432
348.432
348.432
348.432
348.432
348.432
348.432
348.432
348.432
348.432
348.432
348.432
348.432
348.432
348.432
348.432
348.432
348.432
348.432
348.432
348.432
348.432
348.432
348.432
348.432
348.432
348.432
348.432
348.432
348.432
348.432
348.432
348.432
348.432
348.432
348.432
348.432
348.432
348.432
348.432
348.432
348.432
348.432
348.432
348.432
348.432
348.432
348.432
348.432
348.432
348.432
348.432
348.432
348.432
348.432
348.432
348.432
348.432
348.432
348.432
348.432
348.432
348.432
348.432
348.432
348.432
348.432
348.432
348.432
348.432
348.432
348.432
348.432
348.432
348.432
348.432
348.432
348.432
348.432
348.432
348.432
348.432
348.432
348.431
348.431
348.43
348.429
348.427
348.423
348.418
348.41
348.397
348.379
348.353
348.317
348.268
348.204
348.122
348.021
347.899
347.754
347.587
347.397
347.184
346.95
346.694
346.419
346.125
345.814
345.486
345.144
344.788
344.419
344.039
343.649
343.25
342.842
342.427
342.005
341.576
341.142
340.702
340.258
339.81
339.358
338.903
338.444
337.983
337.519
337.053
336.585
336.114
335.642
335.169
334.694
334.217
333.74
333.261
332.782
332.301
331.82
331.338
330.856
330.372
329.889
329.405
328.92
328.435
327.95
327.465
326.979
326.493
326.007
325.521
325.035
324.549
324.062
323.576
323.09
322.603
322.117
321.631
321.145
320.66
320.174
319.689
319.203
318.718
318.234
317.749
317.265
316.781
316.298
315.815
315.332
314.85
314.368
313.887
313.406
312.926
312.447
311.968
311.49
311.013
310.536
310.061
309.587
309.114
308.642
308.172
307.703
307.236
306.772
306.31
305.851
305.395
304.944
304.497
304.055
303.62
303.193
302.775
302.368
301.975
301.598
301.239
300.902
300.59
300.305
300.051
299.827
299.636
299.477
299.347
299.246
299.168
299.111
299.07
299.042
299.024
299.012
299.006
299.002
299
299
299
299
299
299
299
299
299
299
299
299
299
299
299
299
299
299
299
299
299
299
299
299
299
299
299
299
299
299
299
299
299
299
299
299
299
299
299
299
299
299
299
299
299
299
299
299
299
299
299
299
299
299
299
299
299
299
299
299
299
299
299
299
299
299
299
299
299
299
299
299
299
299
299
299
299
299
299
299
299
299
299
299
299
299
299
299
299
299
299
299
299
299
299
299
299
299
299
299
299
299
299
299
299
299
299
299
299
299
299
299
299
299
299
299
299
299
299
299
299
299
299
299
299
299
299
299
299
299
299
299
299
299
299
299.001
299.002
299.003
299.003
299.004
299.004
299.005
299.005
299.005
299.005
299.005
299.005
299.005
299.005
299.005
299.005
299.005
299.005
299.005
299.005
299.005
299.005
299.005
299.005
299.005
299.005
299.005
299.005
299.005
299.005
299.005
299.005
299.005
299.005
299.005
299.005
299.005
299.005
299.005
299.005
299.005
299.005
299.005
299.005
299.005
299.005
299.005
299.005
299.005
299.005
299.005
299.005
299.005
299.005
299.006
299.006
299.006
299.006
299.006
299.006
299.006
299.006
299.007
299.007
299.007
299.007
299.007
299.007
299.007
299.008
299.008
299.008
299.008
299.008
299.008
299.009
299.009
299.009
299.009
299.01
299.01
299.01
299.01
299.01
299.011
299.011
299.011
299.012
299.012
299.012
299.012
299.013
299.013
299.013
299.014
299.014
299.014
299.015
299.015
299.015
299.015
299.016
299.016
299.017
299.017
299.017
299.018
299.018
299.019
299.019
299.02
299.02
299.021
299.021
299.021
299.022
299.022
299.023
299.023
299.024
299.024
299.025
299.026
299.026
299.027
299.027
299.028
299.029
299.03
299.032
299.034
299.037
299.041
299.047
299.056
299.069
299.089
299.118
299.16
299.221
299.308
299.433
299.607
299.848
300.18
300.629
301.231
302.026
303.063
304.399
306.097
308.227
310.86
314.071
317.931
322.499
327.824
333.926
340.798
348.387
356.594
365.26
374.171
383.059
391.621
399.545
406.557
412.461
417.181
420.764
423.355
425.15
426.349
427.124
427.612
427.911
428.088
428.191
428.248
428.277
428.291
428.297
428.299
428.299
428.298
428.297
428.295
428.292
428.288
428.285
428.283
428.283
428.282
428.282
428.282
428.282
428.283
428.283
428.284
428.285
428.286
428.287
428.288
428.289
428.29
428.291
428.291
428.292
428.293
428.293
428.294
428.294
428.295
428.295
428.296
428.296
428.296
428.297
428.297
428.298
428.298
428.298
428.298
428.299
428.299
428.299
428.299
428.3
428.3
428.3
428.3
428.301
428.301
428.301
428.301
428.301
428.301
428.301
428.302
428.302
428.302
428.302
428.302
428.302
428.302
428.302
428.303
428.303
428.303
428.303
428.303
428.303
428.303
428.303
428.303
428.303
428.303
428.303
428.303
428.303
428.304
428.304
428.304
428.304
428.304
428.304
428.304
428.304
428.304
428.304
428.304
428.304
428.304
428.304
428.304
428.304
428.304
428.304
428.304
428.304
428.304
428.304
428.304
428.304
428.304
428.304
428.303
428.303
428.303
428.303
428.303
428.303
428.303
428.303
428.303
428.303
428.303
428.303
428.303
428.302
428.302
428.302
428.302
428.3
428.303
428.298
428.303
428.292
428.304
428.275
428.301
428.221
428.274
428.055
428.101
427.494
427.29
425.338
423.846
416.989
408.669
383.733
343.137
307.616
300.412
299.227
299.037
299.006
299.001
299
299
299
299
299
299
299
299
299
299
299
299
299
299
299
299
299
299
299
299
299
299
299
299
299
299
299
299
299
299
299
299
299
299
299
299
299
299
299
299
299
299
299
299
299
299
299
299
299
299
299
299
299
299
299
299
299
299
299
299
299
299
299
299
299
299
299
299
299
299
299
299
299
299
299
299
299
299
299
299
299
299
299
299
299
299
299
299
299
299
299
299
299
299
299
299
299
299
299
299
299
299
299
299
299
299
299
299
299
299
299
299
299
299
299
299
299
299
299
299
299
299
299
299
299
299
299
299
299
299
299
299
299
299
299
299
299
299
299
299
299
299
299
299
299
299
)
;

boundaryField
{
    sides
    {
        type            zeroGradient;
    }
    empty
    {
        type            empty;
    }
}


// ************************************************************************* //
