/*--------------------------------*- C++ -*----------------------------------*\
  =========                 |
  \\      /  F ield         | OpenFOAM: The Open Source CFD Toolbox
   \\    /   O peration     | Website:  https://openfoam.org
    \\  /    A nd           | Version:  13
     \\/     M anipulation  |
\*---------------------------------------------------------------------------*/
FoamFile
{
    format      ascii;
    class       volVectorField;
    location    "0.006";
    object      U;
}
// * * * * * * * * * * * * * * * * * * * * * * * * * * * * * * * * * * * * * //

dimensions      [0 1 -1 0 0 0 0];

internalField   nonuniform List<vector> 
1000
(
(-1.3882e-13 0 0)
(-1.02327e-13 0 0)
(-7.30708e-14 0 0)
(-2.19558e-14 0 0)
(7.30509e-15 0 0)
(3.64645e-14 0 0)
(-7.312e-14 0 0)
(-1.02191e-13 0 0)
(-8.77333e-14 0 0)
(-1.09642e-13 0 0)
(-2.19312e-13 0 0)
(-2.85003e-13 0 0)
(-4.60536e-13 0 0)
(-4.97031e-13 0 0)
(-4.45722e-13 0 0)
(-3.50865e-13 0 0)
(-3.43535e-13 0 0)
(-2.85036e-13 0 0)
(-2.92367e-13 0 0)
(-4.53192e-13 0 0)
(-4.53136e-13 0 0)
(-4.53181e-13 0 0)
(-6.86986e-13 0 0)
(-7.89364e-13 0 0)
(-6.9436e-13 0 0)
(-6.1395e-13 0 0)
(-5.33546e-13 0 0)
(-5.48163e-13 0 0)
(-6.13982e-13 0 0)
(-4.45807e-13 0 0)
(-3.65546e-13 0 0)
(-6.87046e-13 0 0)
(-7.96538e-13 0 0)
(-7.52844e-13 0 0)
(-6.94379e-13 0 0)
(-7.74769e-13 0 0)
(-9.20905e-13 0 0)
(-1.10372e-12 0 0)
(-1.22789e-12 0 0)
(-1.02316e-12 0 0)
(-1.07442e-12 0 0)
(-1.05982e-12 0 0)
(-1.08172e-12 0 0)
(-1.00135e-12 0 0)
(-1.06714e-12 0 0)
(-1.14748e-12 0 0)
(-1.1914e-12 0 0)
(-1.38865e-12 0 0)
(-1.35212e-12 0 0)
(-1.21327e-12 0 0)
(-9.5018e-13 0 0)
(-8.40532e-13 0 0)
(-8.03996e-13 0 0)
(-7.38248e-13 0 0)
(-7.96626e-13 0 0)
(-8.7716e-13 0 0)
(-1.17675e-12 0 0)
(-1.27893e-12 0 0)
(-1.23523e-12 0 0)
(-1.12563e-12 0 0)
(-1.14751e-12 0 0)
(-1.11823e-12 0 0)
(-1.19142e-12 0 0)
(-1.3229e-12 0 0)
(-1.24242e-12 0 0)
(-1.03058e-12 0 0)
(-8.69803e-13 0 0)
(-6.94315e-13 0 0)
(-6.13987e-13 0 0)
(-7.23603e-13 0 0)
(-7.01636e-13 0 0)
(-6.50563e-13 0 0)
(-7.60057e-13 0 0)
(-7.52804e-13 0 0)
(-6.79738e-13 0 0)
(-6.13965e-13 0 0)
(-5.33513e-13 0 0)
(-5.11654e-13 0 0)
(-4.97048e-13 0 0)
(-5.04286e-13 0 0)
(-4.75219e-13 0 0)
(-6.06597e-13 0 0)
(-5.91869e-13 0 0)
(-5.40888e-13 0 0)
(-4.31306e-13 0 0)
(-5.77406e-13 0 0)
(-7.52797e-13 0 0)
(-7.82124e-13 0 0)
(-8.47759e-13 0 0)
(-7.60052e-13 0 0)
(-6.65137e-13 0 0)
(-5.92036e-13 0 0)
(-4.09285e-13 0 0)
(-3.2899e-13 0 0)
(-2.77755e-13 0 0)
(-8.03624e-14 0 0)
(1.45355e-14 0 0)
(-2.41149e-13 0 0)
(-3.36053e-13 0 0)
(-1.68115e-13 0 0)
(-1.60977e-13 0 0)
(-2.7767e-13 0 0)
(-2.04677e-13 0 0)
(-2.70416e-13 0 0)
(-3.72719e-13 0 0)
(-3.80052e-13 0 0)
(-2.41217e-13 0 0)
(-1.82665e-13 0 0)
(-4.3854e-14 0 0)
(5.11299e-14 0 0)
(7.3065e-14 0 0)
(1.82625e-13 0 0)
(9.49837e-14 0 0)
(-1.45961e-13 0 0)
(-5.84841e-14 0 0)
(-2.9367e-14 0 0)
(-5.84085e-14 0 0)
(7.28454e-15 0 0)
(1.09621e-13 0 0)
(1.53452e-13 0 0)
(4.38418e-14 0 0)
(-2.91547e-14 0 0)
(8.77255e-14 0 0)
(1.6075e-13 0 0)
(9.51526e-14 0 0)
(2.55676e-13 0 0)
(1.68158e-13 0 0)
(2.04631e-13 0 0)
(2.33764e-13 0 0)
(9.5031e-14 0 0)
(-1.45437e-14 0 0)
(2.19301e-13 0 0)
(2.33898e-13 0 0)
(2.85e-13 0 0)
(3.58158e-13 0 0)
(3.28917e-13 0 0)
(3.21498e-13 0 0)
(2.7774e-13 0 0)
(2.3399e-13 0 0)
(2.63146e-13 0 0)
(2.11876e-13 0 0)
(3.07062e-13 0 0)
(3.8732e-13 0 0)
(4.23958e-13 0 0)
(4.1645e-13 0 0)
(2.63171e-13 0 0)
(2.26712e-13 0 0)
(4.53147e-13 0 0)
(5.99253e-13 0 0)
(5.48371e-13 0 0)
(7.08783e-13 0 0)
(7.01662e-13 0 0)
(7.3823e-13 0 0)
(6.65018e-13 0 0)
(5.1164e-13 0 0)
(4.095e-13 0 0)
(5.11493e-13 0 0)
(4.3853e-13 0 0)
(3.36235e-13 0 0)
(3.28908e-13 0 0)
(3.58199e-13 0 0)
(3.28737e-13 0 0)
(1.31525e-13 0 0)
(-7.18261e-15 0 0)
(-1.09662e-13 0 0)
(-1.60761e-13 0 0)
(-1.82796e-13 0 0)
(-3.28816e-13 0 0)
(-3.94687e-13 0 0)
(-3.58232e-13 0 0)
(-4.75085e-13 0 0)
(-4.82304e-13 0 0)
(-4.67763e-13 0 0)
(-4.02119e-13 0 0)
(-5.26001e-13 0 0)
(-5.04379e-13 0 0)
(-5.26299e-13 0 0)
(-6.14017e-13 0 0)
(-5.62878e-13 0 0)
(-6.50463e-13 0 0)
(-7.23322e-13 0 0)
(-6.57814e-13 0 0)
(-6.21315e-13 0 0)
(-6.72476e-13 0 0)
(-7.08951e-13 0 0)
(-5.55522e-13 0 0)
(-4.67875e-13 0 0)
(-7.01676e-13 0 0)
(-8.98873e-13 0 0)
(-8.33237e-13 0 0)
(-8.84391e-13 0 0)
(-8.18609e-13 0 0)
(-8.69723e-13 0 0)
(-9.50164e-13 0 0)
(-1.00148e-12 0 0)
(-1.18404e-12 0 0)
(-1.35935e-12 0 0)
(-1.41798e-12 0 0)
(-1.38137e-12 0 0)
(-1.36661e-12 0 0)
(-1.26455e-12 0 0)
(-1.18408e-12 0 0)
(-1.05247e-12 0 0)
(-1.05263e-12 0 0)
(-1.14019e-12 0 0)
(-1.32278e-12 0 0)
(-1.2572e-12 0 0)
(-1.23515e-12 0 0)
(-1.27175e-12 0 0)
(-1.4033e-12 0 0)
(-1.44718e-12 0 0)
(-1.33763e-12 0 0)
(-1.31565e-12 0 0)
(-1.42511e-12 0 0)
(-1.5422e-12 0 0)
(-1.57144e-12 0 0)
(-1.60064e-12 0 0)
(-1.58602e-12 0 0)
(-1.41064e-12 0 0)
(-6.06806e-13 0 0)
(5.11727e-13 0 0)
(4.27585e-12 0 0)
(1.16286e-11 0 0)
(2.72551e-11 0 0)
(6.01896e-11 0 0)
(1.29398e-10 0 0)
(2.72676e-10 0 0)
(5.70677e-10 0 0)
(1.18479e-09 0 0)
(2.44089e-09 0 0)
(5.0004e-09 0 0)
(1.01741e-08 0 0)
(2.05714e-08 0 0)
(4.13131e-08 0 0)
(8.24178e-08 0 0)
(1.63284e-07 0 0)
(3.21237e-07 0 0)
(6.27441e-07 0 0)
(1.21653e-06 0 0)
(2.34096e-06 0 0)
(4.46994e-06 0 0)
(8.46753e-06 0 0)
(1.59098e-05 0 0)
(2.96428e-05 0 0)
(5.47534e-05 0 0)
(0.000100234 0 0)
(0.000181805 0 0)
(0.000326609 0 0)
(0.000580934 0 0)
(0.00102264 0 0)
(0.00178079 0 0)
(0.00306603 0 0)
(0.00521618 0 0)
(0.00876287 0 0)
(0.0145248 0 0)
(0.0237323 0 0)
(0.0381815 0 0)
(0.0604078 0 0)
(0.0938485 0 0)
(0.142948 0 0)
(0.213148 0 0)
(0.310709 0 0)
(0.442373 0 0)
(0.614906 0 0)
(0.834614 0 0)
(1.10692 0 0)
(1.43609 0 0)
(1.82505 0 0)
(2.27539 0 0)
(2.78744 0 0)
(3.36043 0 0)
(3.9927 0 0)
(4.68185 0 0)
(5.42501 0 0)
(6.21897 0 0)
(7.06034 0 0)
(7.94566 0 0)
(8.87155 0 0)
(9.83471 0 0)
(10.832 0 0)
(11.8604 0 0)
(12.9173 0 0)
(14 0 0)
(15.1063 0 0)
(16.234 0 0)
(17.3812 0 0)
(18.546 0 0)
(19.7271 0 0)
(20.9227 0 0)
(22.1318 0 0)
(23.3531 0 0)
(24.5856 0 0)
(25.8283 0 0)
(27.0803 0 0)
(28.3409 0 0)
(29.6094 0 0)
(30.8852 0 0)
(32.1676 0 0)
(33.4561 0 0)
(34.7503 0 0)
(36.0498 0 0)
(37.3542 0 0)
(38.663 0 0)
(39.9761 0 0)
(41.293 0 0)
(42.6135 0 0)
(43.9374 0 0)
(45.2645 0 0)
(46.5945 0 0)
(47.9272 0 0)
(49.2625 0 0)
(50.6001 0 0)
(51.94 0 0)
(53.282 0 0)
(54.626 0 0)
(55.9718 0 0)
(57.3194 0 0)
(58.6685 0 0)
(60.0192 0 0)
(61.3713 0 0)
(62.7247 0 0)
(64.0794 0 0)
(65.4353 0 0)
(66.7922 0 0)
(68.1502 0 0)
(69.5091 0 0)
(70.8688 0 0)
(72.2294 0 0)
(73.5908 0 0)
(74.9528 0 0)
(76.3154 0 0)
(77.6787 0 0)
(79.0424 0 0)
(80.4065 0 0)
(81.771 0 0)
(83.1359 0 0)
(84.501 0 0)
(85.8663 0 0)
(87.2317 0 0)
(88.5971 0 0)
(89.9626 0 0)
(91.3279 0 0)
(92.693 0 0)
(94.0578 0 0)
(95.4223 0 0)
(96.7862 0 0)
(98.1495 0 0)
(99.512 0 0)
(100.874 0 0)
(102.234 0 0)
(103.593 0 0)
(104.951 0 0)
(106.307 0 0)
(107.661 0 0)
(109.013 0 0)
(110.361 0 0)
(111.707 0 0)
(113.048 0 0)
(114.386 0 0)
(115.718 0 0)
(117.043 0 0)
(118.362 0 0)
(119.672 0 0)
(120.971 0 0)
(122.258 0 0)
(123.53 0 0)
(124.784 0 0)
(126.016 0 0)
(127.222 0 0)
(128.397 0 0)
(129.534 0 0)
(130.625 0 0)
(131.663 0 0)
(132.639 0 0)
(133.544 0 0)
(134.369 0 0)
(135.109 0 0)
(135.757 0 0)
(136.311 0 0)
(136.774 0 0)
(137.15 0 0)
(137.446 0 0)
(137.672 0 0)
(137.839 0 0)
(137.958 0 0)
(138.039 0 0)
(138.093 0 0)
(138.126 0 0)
(138.145 0 0)
(138.156 0 0)
(138.161 0 0)
(138.165 0 0)
(138.169 0 0)
(138.174 0 0)
(138.181 0 0)
(138.19 0 0)
(138.204 0 0)
(138.226 0 0)
(138.262 0 0)
(138.322 0 0)
(138.419 0 0)
(138.574 0 0)
(138.812 0 0)
(139.163 0 0)
(139.655 0 0)
(140.302 0 0)
(141.108 0 0)
(142.062 0 0)
(143.145 0 0)
(144.336 0 0)
(145.615 0 0)
(146.963 0 0)
(148.368 0 0)
(149.816 0 0)
(151.3 0 0)
(152.813 0 0)
(154.349 0 0)
(155.904 0 0)
(157.474 0 0)
(159.057 0 0)
(160.651 0 0)
(162.253 0 0)
(163.863 0 0)
(165.48 0 0)
(167.102 0 0)
(168.729 0 0)
(170.36 0 0)
(171.995 0 0)
(173.632 0 0)
(175.273 0 0)
(176.916 0 0)
(178.561 0 0)
(180.208 0 0)
(181.857 0 0)
(183.507 0 0)
(185.159 0 0)
(186.812 0 0)
(188.466 0 0)
(190.121 0 0)
(191.777 0 0)
(193.434 0 0)
(195.092 0 0)
(196.75 0 0)
(198.41 0 0)
(200.069 0 0)
(201.73 0 0)
(203.391 0 0)
(205.052 0 0)
(206.714 0 0)
(208.377 0 0)
(210.04 0 0)
(211.703 0 0)
(213.367 0 0)
(215.031 0 0)
(216.695 0 0)
(218.36 0 0)
(220.025 0 0)
(221.691 0 0)
(223.357 0 0)
(225.023 0 0)
(226.689 0 0)
(228.355 0 0)
(230.022 0 0)
(231.689 0 0)
(233.356 0 0)
(235.024 0 0)
(236.691 0 0)
(238.359 0 0)
(240.027 0 0)
(241.695 0 0)
(243.363 0 0)
(245.031 0 0)
(246.699 0 0)
(248.367 0 0)
(250.035 0 0)
(251.703 0 0)
(253.371 0 0)
(255.038 0 0)
(256.706 0 0)
(258.373 0 0)
(260.039 0 0)
(261.705 0 0)
(263.371 0 0)
(265.035 0 0)
(266.699 0 0)
(268.361 0 0)
(270.022 0 0)
(271.682 0 0)
(273.34 0 0)
(274.995 0 0)
(276.648 0 0)
(278.298 0 0)
(279.944 0 0)
(281.586 0 0)
(283.222 0 0)
(284.852 0 0)
(286.475 0 0)
(288.088 0 0)
(289.69 0 0)
(291.279 0 0)
(292.854 0 0)
(294.411 0 0)
(295.947 0 0)
(297.45 0 0)
(298.908 0 0)
(300.305 0 0)
(301.626 0 0)
(302.851 0 0)
(303.958 0 0)
(304.926 0 0)
(305.737 0 0)
(306.383 0 0)
(306.865 0 0)
(307.2 0 0)
(307.412 0 0)
(307.536 0 0)
(307.6 0 0)
(307.63 0 0)
(307.643 0 0)
(307.648 0 0)
(307.65 0 0)
(307.651 0 0)
(307.652 0 0)
(307.653 0 0)
(307.653 0 0)
(307.651 0 0)
(307.648 0 0)
(307.645 0 0)
(307.644 0 0)
(307.642 0 0)
(307.641 0 0)
(307.64 0 0)
(307.64 0 0)
(307.639 0 0)
(307.639 0 0)
(307.639 0 0)
(307.639 0 0)
(307.64 0 0)
(307.64 0 0)
(307.64 0 0)
(307.64 0 0)
(307.64 0 0)
(307.641 0 0)
(307.641 0 0)
(307.641 0 0)
(307.641 0 0)
(307.642 0 0)
(307.642 0 0)
(307.642 0 0)
(307.642 0 0)
(307.643 0 0)
(307.643 0 0)
(307.643 0 0)
(307.643 0 0)
(307.643 0 0)
(307.643 0 0)
(307.643 0 0)
(307.643 0 0)
(307.643 0 0)
(307.644 0 0)
(307.644 0 0)
(307.644 0 0)
(307.644 0 0)
(307.644 0 0)
(307.644 0 0)
(307.644 0 0)
(307.644 0 0)
(307.644 0 0)
(307.644 0 0)
(307.644 0 0)
(307.644 0 0)
(307.644 0 0)
(307.644 0 0)
(307.644 0 0)
(307.644 0 0)
(307.644 0 0)
(307.644 0 0)
(307.645 0 0)
(307.645 0 0)
(307.645 0 0)
(307.645 0 0)
(307.645 0 0)
(307.645 0 0)
(307.645 0 0)
(307.645 0 0)
(307.645 0 0)
(307.645 0 0)
(307.645 0 0)
(307.645 0 0)
(307.645 0 0)
(307.645 0 0)
(307.645 0 0)
(307.645 0 0)
(307.645 0 0)
(307.645 0 0)
(307.645 0 0)
(307.645 0 0)
(307.645 0 0)
(307.645 0 0)
(307.645 0 0)
(307.645 0 0)
(307.645 0 0)
(307.645 0 0)
(307.645 0 0)
(307.645 0 0)
(307.645 0 0)
(307.645 0 0)
(307.645 0 0)
(307.645 0 0)
(307.645 0 0)
(307.645 0 0)
(307.645 0 0)
(307.645 0 0)
(307.645 0 0)
(307.645 0 0)
(307.645 0 0)
(307.645 0 0)
(307.645 0 0)
(307.645 0 0)
(307.645 0 0)
(307.645 0 0)
(307.644 0 0)
(307.644 0 0)
(307.644 0 0)
(307.644 0 0)
(307.644 0 0)
(307.644 0 0)
(307.644 0 0)
(307.644 0 0)
(307.644 0 0)
(307.644 0 0)
(307.644 0 0)
(307.644 0 0)
(307.644 0 0)
(307.644 0 0)
(307.644 0 0)
(307.644 0 0)
(307.644 0 0)
(307.644 0 0)
(307.644 0 0)
(307.644 0 0)
(307.644 0 0)
(307.644 0 0)
(307.644 0 0)
(307.644 0 0)
(307.644 0 0)
(307.644 0 0)
(307.644 0 0)
(307.644 0 0)
(307.644 0 0)
(307.644 0 0)
(307.644 0 0)
(307.644 0 0)
(307.644 0 0)
(307.644 0 0)
(307.644 0 0)
(307.643 0 0)
(307.643 0 0)
(307.643 0 0)
(307.643 0 0)
(307.643 0 0)
(307.643 0 0)
(307.643 0 0)
(307.643 0 0)
(307.643 0 0)
(307.643 0 0)
(307.643 0 0)
(307.643 0 0)
(307.643 0 0)
(307.643 0 0)
(307.643 0 0)
(307.643 0 0)
(307.643 0 0)
(307.644 0 0)
(307.644 0 0)
(307.645 0 0)
(307.646 0 0)
(307.648 0 0)
(307.651 0 0)
(307.654 0 0)
(307.657 0 0)
(307.661 0 0)
(307.665 0 0)
(307.669 0 0)
(307.673 0 0)
(307.675 0 0)
(307.675 0 0)
(307.673 0 0)
(307.669 0 0)
(307.664 0 0)
(307.658 0 0)
(307.652 0 0)
(307.648 0 0)
(307.645 0 0)
(307.643 0 0)
(307.642 0 0)
(307.642 0 0)
(307.642 0 0)
(307.642 0 0)
(307.642 0 0)
(307.642 0 0)
(307.642 0 0)
(307.641 0 0)
(307.642 0 0)
(307.641 0 0)
(307.641 0 0)
(307.641 0 0)
(307.641 0 0)
(307.641 0 0)
(307.641 0 0)
(307.641 0 0)
(307.641 0 0)
(307.641 0 0)
(307.641 0 0)
(307.64 0 0)
(307.64 0 0)
(307.64 0 0)
(307.64 0 0)
(307.64 0 0)
(307.64 0 0)
(307.64 0 0)
(307.64 0 0)
(307.64 0 0)
(307.64 0 0)
(307.64 0 0)
(307.64 0 0)
(307.639 0 0)
(307.639 0 0)
(307.639 0 0)
(307.639 0 0)
(307.639 0 0)
(307.639 0 0)
(307.639 0 0)
(307.639 0 0)
(307.639 0 0)
(307.639 0 0)
(307.638 0 0)
(307.638 0 0)
(307.638 0 0)
(307.638 0 0)
(307.638 0 0)
(307.638 0 0)
(307.638 0 0)
(307.638 0 0)
(307.638 0 0)
(307.637 0 0)
(307.637 0 0)
(307.637 0 0)
(307.637 0 0)
(307.637 0 0)
(307.637 0 0)
(307.637 0 0)
(307.637 0 0)
(307.636 0 0)
(307.636 0 0)
(307.636 0 0)
(307.636 0 0)
(307.636 0 0)
(307.636 0 0)
(307.636 0 0)
(307.636 0 0)
(307.635 0 0)
(307.635 0 0)
(307.635 0 0)
(307.635 0 0)
(307.635 0 0)
(307.635 0 0)
(307.634 0 0)
(307.634 0 0)
(307.634 0 0)
(307.634 0 0)
(307.634 0 0)
(307.634 0 0)
(307.634 0 0)
(307.633 0 0)
(307.633 0 0)
(307.633 0 0)
(307.633 0 0)
(307.633 0 0)
(307.632 0 0)
(307.632 0 0)
(307.632 0 0)
(307.632 0 0)
(307.632 0 0)
(307.632 0 0)
(307.631 0 0)
(307.631 0 0)
(307.631 0 0)
(307.631 0 0)
(307.631 0 0)
(307.63 0 0)
(307.63 0 0)
(307.63 0 0)
(307.63 0 0)
(307.629 0 0)
(307.629 0 0)
(307.629 0 0)
(307.629 0 0)
(307.629 0 0)
(307.628 0 0)
(307.628 0 0)
(307.628 0 0)
(307.628 0 0)
(307.627 0 0)
(307.627 0 0)
(307.627 0 0)
(307.626 0 0)
(307.626 0 0)
(307.626 0 0)
(307.626 0 0)
(307.625 0 0)
(307.625 0 0)
(307.625 0 0)
(307.624 0 0)
(307.624 0 0)
(307.624 0 0)
(307.623 0 0)
(307.623 0 0)
(307.623 0 0)
(307.622 0 0)
(307.622 0 0)
(307.621 0 0)
(307.621 0 0)
(307.62 0 0)
(307.62 0 0)
(307.619 0 0)
(307.62 0 0)
(307.617 0 0)
(307.619 0 0)
(307.613 0 0)
(307.62 0 0)
(307.606 0 0)
(307.618 0 0)
(307.586 0 0)
(307.604 0 0)
(307.527 0 0)
(307.537 0 0)
(307.337 0 0)
(307.256 0 0)
(306.76 0 0)
(306.025 0 0)
(304.787 0 0)
(300.773 0 0)
(296.701 0 0)
(280.268 0 0)
(261.344 0 0)
(202.494 0 0)
(108.209 0 0)
(22.8693 0 0)
(3.96401 0 0)
(0.651664 0 0)
(0.10637 0 0)
(0.0173434 0 0)
(0.00282708 0 0)
(0.000460828 0 0)
(7.51174e-05 0 0)
(1.22446e-05 0 0)
(1.99594e-06 0 0)
(3.25348e-07 0 0)
(5.30328e-08 0 0)
(8.64397e-09 0 0)
(1.40764e-09 0 0)
(2.28412e-10 0 0)
(3.54677e-11 0 0)
(4.3563e-12 0 0)
(-1.01558e-12 0 0)
(-1.8055e-12 0 0)
(-2.08292e-12 0 0)
(-1.98089e-12 0 0)
(-1.80504e-12 0 0)
(-1.74704e-12 0 0)
(-1.68103e-12 0 0)
(-1.53467e-12 0 0)
(-1.44019e-12 0 0)
(-1.53458e-12 0 0)
(-1.74694e-12 0 0)
(-2.03177e-12 0 0)
(-2.20762e-12 0 0)
(-2.45524e-12 0 0)
(-2.36844e-12 0 0)
(-2.30203e-12 0 0)
(-2.36139e-12 0 0)
(-2.53603e-12 0 0)
(-2.3826e-12 0 0)
(-2.14167e-12 0 0)
(-2.09021e-12 0 0)
(-1.93698e-12 0 0)
(-1.83527e-12 0 0)
(-1.74599e-12 0 0)
(-1.56424e-12 0 0)
(-1.45442e-12 0 0)
(-1.50576e-12 0 0)
(-1.57148e-12 0 0)
(-1.71754e-12 0 0)
(-1.78991e-12 0 0)
(-1.63022e-12 0 0)
(-1.55731e-12 0 0)
(-1.56397e-12 0 0)
(-1.58609e-12 0 0)
(-1.64497e-12 0 0)
(-1.66635e-12 0 0)
(-1.79102e-12 0 0)
(-2.00313e-12 0 0)
(-2.24213e-12 0 0)
(-2.08366e-12 0 0)
(-1.95857e-12 0 0)
(-1.74608e-12 0 0)
(-1.60201e-12 0 0)
(-1.81271e-12 0 0)
(-1.97299e-12 0 0)
(-2.05931e-12 0 0)
(-1.77795e-12 0 0)
(-2.03135e-12 0 0)
(-2.24299e-12 0 0)
(-2.1359e-12 0 0)
(-2.07591e-12 0 0)
(-2.03091e-12 0 0)
(-1.6372e-12 0 0)
(-1.58029e-12 0 0)
(-1.87651e-12 0 0)
(-1.84242e-12 0 0)
(-2.03916e-12 0 0)
(-1.90681e-12 0 0)
(-1.71069e-12 0 0)
(-1.90825e-12 0 0)
(-2.05311e-12 0 0)
(-1.92271e-12 0 0)
(-2.03335e-12 0 0)
(-2.34426e-12 0 0)
(-2.36162e-12 0 0)
(-2.4703e-12 0 0)
(-2.41048e-12 0 0)
(-2.30296e-12 0 0)
(-2.33845e-12 0 0)
(-2.20663e-12 0 0)
(-2.06127e-12 0 0)
(-1.7926e-12 0 0)
(-1.81184e-12 0 0)
(-1.81221e-12 0 0)
(-1.49902e-12 0 0)
(-1.33658e-12 0 0)
(-9.86725e-13 0 0)
(-6.43617e-13 0 0)
(-3.38288e-13 0 0)
(-4.65864e-13 0 0)
(1.38229e-14 0 0)
(2.63397e-13 0 0)
(4.03416e-13 0 0)
(7.44491e-13 0 0)
(8.18847e-13 0 0)
(9.57325e-13 0 0)
(1.16918e-12 0 0)
(1.3068e-12 0 0)
(9.66284e-13 0 0)
(7.89165e-13 0 0)
(7.45073e-13 0 0)
(7.61866e-13 0 0)
(8.18026e-13 0 0)
(8.62527e-13 0 0)
(7.67242e-13 0 0)
(7.75547e-13 0 0)
(7.87745e-13 0 0)
(5.9208e-13 0 0)
(7.39304e-13 0 0)
(1.00821e-12 0 0)
(1.12611e-12 0 0)
(1.33692e-12 0 0)
(1.51966e-12 0 0)
(1.61418e-12 0 0)
(1.49977e-12 0 0)
(1.72449e-12 0 0)
(1.80537e-12 0 0)
(1.84286e-12 0 0)
(2.2431e-12 0 0)
(2.43364e-12 0 0)
(2.47063e-12 0 0)
(2.58003e-12 0 0)
(2.62982e-12 0 0)
(2.44347e-12 0 0)
(2.59339e-12 0 0)
(2.65977e-12 0 0)
(2.34858e-12 0 0)
(2.63794e-12 0 0)
(2.74777e-12 0 0)
(2.68375e-12 0 0)
(3.03284e-12 0 0)
(3.24281e-12 0 0)
(3.09962e-12 0 0)
(3.03366e-12 0 0)
(3.13537e-12 0 0)
(3.35623e-12 0 0)
(3.40574e-12 0 0)
(3.47833e-12 0 0)
(3.53545e-12 0 0)
(2.99882e-12 0 0)
(3.00288e-12 0 0)
(2.69777e-12 0 0)
(2.5519e-12 0 0)
(2.60732e-12 0 0)
(2.4054e-12 0 0)
)
;

boundaryField
{
    sides
    {
        type            zeroGradient;
    }
    empty
    {
        type            empty;
    }
}


// ************************************************************************* //
