/*--------------------------------*- C++ -*----------------------------------*\
  =========                 |
  \\      /  F ield         | OpenFOAM: The Open Source CFD Toolbox
   \\    /   O peration     | Website:  https://openfoam.org
    \\  /    A nd           | Version:  13
     \\/     M anipulation  |
\*---------------------------------------------------------------------------*/
FoamFile
{
    format      ascii;
    class       volScalarField;
    location    "0.003";
    object      p;
}
// * * * * * * * * * * * * * * * * * * * * * * * * * * * * * * * * * * * * * //

dimensions      [1 -1 -2 0 0 0 0];

internalField   nonuniform List<scalar> 
1000
(
100000
100000
100000
100000
100000
100000
100000
100000
100000
100000
100000
100000
100000
100000
100000
100000
100000
100000
100000
100000
100000
100000
100000
100000
100000
100000
100000
100000
100000
100000
100000
100000
100000
100000
100000
100000
100000
100000
100000
100000
100000
100000
100000
100000
100000
100000
100000
100000
100000
100000
100000
100000
100000
100000
100000
100000
100000
100000
100000
100000
100000
100000
100000
100000
100000
100000
100000
100000
100000
100000
100000
100000
100000
100000
100000
100000
100000
100000
100000
100000
100000
100000
100000
100000
100000
100000
100000
100000
100000
100000
100000
100000
100000
100000
100000
100000
100000
100000
100000
100000
100000
100000
100000
100000
100000
100000
100000
100000
100000
100000
100000
100000
100000
100000
100000
100000
100000
100000
100000
100000
100000
100000
100000
100000
100000
100000
100000
100000
100000
100000
100000
100000
100000
100000
100000
100000
100000
100000
100000
100000
100000
100000
100000
100000
100000
100000
100000
100000
100000
100000
100000
100000
100000
100000
100000
100000
100000
100000
100000
100000
100000
100000
100000
100000
100000
100000
100000
100000
100000
100000
100000
100000
100000
100000
100000
100000
100000
100000
100000
100000
100000
100000
100000
100000
100000
100000
100000
100000
100000
100000
100000
100000
100000
100000
100000
100000
100000
100000
100000
100000
100000
100000
100000
100000
100000
100000
100000
100000
100000
100000
100000
100000
100000
100000
100000
100000
100000
100000
100000
100000
100000
100000
100000
100000
100000
100000
100000
100000
100000
100000
100000
100000
100000
100000
100000
100000
100000
100000
100000
100000
100000
100000
100000
100000
100000
100000
100000
100000
100000
100000
100000
100000
100000
100000
100000
100000
100000
100000
100000
100000
100000
100000
100000
100000
100000
100000
100000
100000
100000
100000
100000
100000
100000
100000
100000
100000
100000
100000
100000
100000
100000
100000
100000
100000
100000
100000
100000
100000
100000
100000
100000
100000
100000
100000
100000
100000
100000
100000
100000
100000
100000
100000
100000
100000
100000
100000
100000
100000
100000
100000
100000
100000
100000
100000
100000
100000
100000
100000
100000
100000
100000
100000
100000
100000
100000
100000
100000
100000
100000
100000
100000
100000
100000
100000
100000
100000
100000
100000
100000
100000
100000
100000
100000
100000
100000
100000
100000
100000
100000
100000
100000
100000
100000
100000
100000
100000
100000
100000
100000
100000
100000
100000
100000
100000
100000
99999.9
99999.8
99999.6
99999.3
99998.6
99997.3
99994.9
99990.6
99982.9
99969.6
99947.1
99910.4
99852.3
99764.4
99636.9
99461
99229.6
98938.1
98585.1
98171.5
97700.1
97175.3
96602
95985.5
95331.1
94644
93928.9
93190.1
92431.6
91656.6
90868.3
90069.3
89261.8
88447.9
87629.2
86807.4
85983.5
85158.8
84334.3
83510.7
82688.8
81869.3
81052.6
80239.3
79429.8
78624.5
77823.8
77027.8
76237
75451.5
74671.6
73897.5
73129.4
72367.6
71612.3
70863.6
70121.9
69387.4
68660.6
67941.7
67231.4
66530.2
65839
65158.9
64491.3
63838.1
63201.8
62585.9
61994.5
61433.1
60908.1
60426.6
59995.9
59622.2
59309.7
59059.3
58867.8
58729
58633.7
58572.1
58533.9
58509
58491.2
58463.1
58412.2
58322.5
58174.4
57950.5
57643.3
57258.3
56810.3
56315.8
55789.5
55242.3
54681.9
54113.9
53542
52968.8
52396.2
51825.4
51257.6
50693.3
50133.1
49577.4
49026.4
48480.3
47939.3
47403.4
46872.9
46347.6
45827.6
45313
44803.7
44299.7
43801
43307.6
42819.4
42336.5
41858.8
41386.3
40919.1
40457
40000.1
39548.5
39102.3
38661.4
38226
37796.4
37372.7
36955.4
36544.9
36142
35747.5
35363.2
34990.4
34632.3
34291
33974.2
33690.6
33448.4
33253.5
33107.2
33004.7
32937.3
32895.3
32870.6
32857.6
32851.8
32850
32849.9
32850.3
32850.5
32850.7
32850.9
32851.1
32851.3
32851.6
32851.9
32852
32852.1
32852.2
32852.1
32852.1
32852
32851.9
32851.6
32851.4
32851.2
32851.2
32851.2
32851.4
32851.7
32852.1
32852.4
32852.7
32852.9
32853
32853.1
32853.2
32853.3
32853.3
32853.3
32853.3
32853.2
32853.2
32853.1
32853
32853
32852.9
32852.9
32852.8
32852.7
32852.7
32852.6
32852.6
32852.5
32852.4
32852.4
32852.3
32852.3
32852.2
32852.2
32852.1
32852.1
32852.1
32852
32852
32851.9
32851.9
32851.8
32851.8
32851.7
32851.7
32851.6
32851.6
32851.6
32851.5
32851.5
32851.6
32851.7
32852
32852.4
32853.1
32854
32855.3
32856.7
32858.2
32859.4
32859.9
32859.5
32858
32855.8
32853.5
32852
32851.2
32850.8
32850.9
32850.7
32850.6
32850.8
32850.5
32850.5
32850.6
32850.4
32850.4
32850.3
32850.3
32850.2
32850.2
32850.1
32850.1
32850
32850
32849.9
32849.9
32849.8
32849.7
32849.7
32849.6
32849.6
32849.5
32849.4
32849.4
32849.3
32849.2
32849.2
32849.1
32849
32848.9
32848.8
32848.8
32848.7
32848.6
32848.5
32848.4
32848.3
32848.2
32848.1
32848
32847.9
32847.8
32847.7
32847.6
32847.4
32847.3
32847.1
32847.1
32846.8
32846.8
32846.3
32846.6
32845.6
32846.4
32844.1
32846.4
32840.6
32845.9
32830.1
32841.5
32798.1
32815.3
32696.9
32680.2
32319.9
32114.3
30874.9
29783.8
25939.5
20822.3
13724.5
11252.1
10813.6
10740.8
10728.9
10727
10726.7
10726.6
10726.6
10726.6
10726.6
10726.6
10726.6
10726.6
10726.6
10726.6
10726.6
10726.6
10726.6
10726.6
10726.6
10726.6
10726.6
10726.6
10726.6
10726.6
10726.6
10726.6
10726.6
10726.6
10726.6
10726.6
10726.6
10726.6
10726.6
10726.6
10726.6
10726.6
10726.6
10726.6
10726.6
10726.6
10726.6
10726.6
10726.6
10726.6
10726.6
10726.6
10726.6
10726.6
10726.6
10726.6
10726.6
10726.6
10726.6
10726.6
10726.6
10726.6
10726.6
10726.6
10726.6
10726.6
10726.6
10726.6
10726.6
10726.6
10726.6
10726.6
10726.6
10726.6
10726.6
10726.6
10726.6
10726.6
10726.6
10726.6
10726.6
10726.6
10726.6
10726.6
10726.6
10726.6
10726.6
10726.6
10726.6
10726.6
10726.6
10726.6
10726.6
10726.6
10726.6
10726.6
10726.6
10726.6
10726.6
10726.6
10726.6
10726.6
10726.6
10726.6
10726.6
10726.6
10726.6
10726.6
10726.6
10726.6
10726.6
10726.6
10726.6
10726.6
10726.6
10726.6
10726.6
10726.6
10726.6
10726.6
10726.6
10726.6
10726.6
10726.6
10726.6
10726.6
10726.6
10726.6
10726.6
10726.6
10726.6
10726.6
10726.6
10726.6
10726.6
10726.6
10726.6
10726.6
10726.6
10726.6
10726.6
10726.6
10726.6
10726.6
10726.6
10726.6
10726.6
10726.6
10726.6
10726.6
10726.6
10726.6
10726.6
10726.6
10726.6
10726.6
10726.6
10726.6
10726.6
10726.6
10726.6
10726.6
10726.6
10726.6
10726.6
10726.6
10726.6
10726.6
10726.6
10726.6
10726.6
10726.6
10726.6
10726.6
10726.6
10726.6
10726.6
10726.6
10726.6
10726.6
10726.6
10726.6
10726.6
10726.6
10726.6
10726.6
10726.6
10726.6
10726.6
10726.6
10726.6
10726.6
10726.6
10726.6
10726.6
10726.6
10726.6
10726.6
10726.6
10726.6
10726.6
10726.6
10726.6
10726.6
10726.6
10726.6
10726.6
10726.6
10726.6
10726.6
10726.6
10726.6
10726.6
10726.6
10726.6
10726.6
10726.6
10726.6
10726.6
10726.6
10726.6
10726.6
10726.6
10726.6
10726.6
10726.6
10726.6
10726.6
10726.6
10726.6
10726.6
10726.6
10726.6
10726.6
10726.6
10726.6
10726.6
10726.6
10726.6
10726.6
10726.6
10726.6
10726.6
10726.6
10726.6
10726.6
10726.6
10726.6
10726.6
10726.6
10726.6
10726.6
10726.6
10726.6
10726.6
10726.6
10726.6
10726.6
10726.6
10726.6
10726.6
10726.6
10726.6
10726.6
10726.6
10726.6
10726.6
10726.6
10726.6
10726.6
10726.6
10726.6
10726.6
10726.6
10726.6
10726.6
10726.6
10726.6
10726.6
10726.6
10726.6
10726.6
10726.6
10726.6
10726.6
10726.6
10726.6
10726.6
10726.6
10726.6
10726.6
10726.6
10726.6
10726.6
10726.6
10726.6
10726.6
10726.6
10726.6
10726.6
10726.6
10726.6
10726.6
10726.6
10726.6
10726.6
10726.6
10726.6
10726.6
10726.6
10726.6
10726.6
10726.6
10726.6
10726.6
10726.6
10726.6
10726.6
10726.6
10726.6
10726.6
10726.6
10726.6
10726.6
10726.6
10726.6
10726.6
10726.6
10726.6
10726.6
)
;

boundaryField
{
    sides
    {
        type            zeroGradient;
    }
    empty
    {
        type            empty;
    }
}


// ************************************************************************* //
