/*--------------------------------*- C++ -*----------------------------------*\
  =========                 |
  \\      /  F ield         | OpenFOAM: The Open Source CFD Toolbox
   \\    /   O peration     | Website:  https://openfoam.org
    \\  /    A nd           | Version:  13
     \\/     M anipulation  |
\*---------------------------------------------------------------------------*/
FoamFile
{
    format      ascii;
    class       surfaceScalarField;
    location    "0.003";
    object      phi;
}
// * * * * * * * * * * * * * * * * * * * * * * * * * * * * * * * * * * * * * //

dimensions      [1 0 -1 0 0 0 0];

internalField   nonuniform List<scalar> 
999
(
-4.54747e-13
-4.54747e-13
-2.27374e-13
0
1.13687e-13
1.13687e-13
-1.13687e-13
-1.13687e-13
0
1.13687e-13
1.13687e-13
1.13687e-13
1.13687e-13
-2.27374e-13
-2.27374e-13
0
0
0
2.27374e-13
1.13687e-13
0
-1.13687e-13
-1.13687e-13
0
0
0
0
1.13687e-13
1.13687e-13
1.13687e-13
1.13687e-13
-1.13687e-13
-1.13687e-13
0
1.13687e-13
1.13687e-13
1.13687e-13
1.13687e-13
-2.27374e-13
-2.27374e-13
0
0
0
2.27374e-13
1.13687e-13
0
-1.13687e-13
-1.13687e-13
0
0
0
0
1.13687e-13
1.13687e-13
1.13687e-13
1.13687e-13
-1.13687e-13
-1.13687e-13
0
1.13687e-13
1.13687e-13
1.13687e-13
1.13687e-13
-2.27374e-13
-2.27374e-13
0
0
0
2.27374e-13
1.13687e-13
0
-1.13687e-13
-1.13687e-13
0
0
0
0
1.13687e-13
1.13687e-13
1.13687e-13
1.13687e-13
-1.13687e-13
-1.13687e-13
0
1.13687e-13
1.13687e-13
1.13687e-13
1.13687e-13
-2.27374e-13
-2.27374e-13
0
0
0
2.27374e-13
1.13687e-13
0
0
-1.13687e-13
-1.13687e-13
0
-3.41061e-13
-4.54747e-13
0
-2.27374e-13
0
-2.27374e-13
-1.13687e-13
-6.82121e-13
-7.95808e-13
-1.47793e-12
-1.81899e-12
-1.81899e-12
-2.04636e-12
-2.27374e-12
-1.25056e-12
-1.7053e-12
-1.02318e-12
-1.81899e-12
-1.25056e-12
-1.47793e-12
-1.93268e-12
-2.16005e-12
-1.25056e-12
-1.7053e-12
-1.47793e-12
-7.95808e-13
-1.02318e-12
-6.82121e-13
-6.82121e-13
-1.13687e-12
-1.59162e-12
-1.7053e-12
-2.04636e-12
-1.47793e-12
-2.04636e-12
-1.25056e-12
-1.7053e-12
-2.04636e-12
-2.50111e-12
-1.7053e-12
-2.04636e-12
-1.36424e-12
-1.93268e-12
-1.13687e-12
-1.47793e-12
-1.93268e-12
-1.81899e-12
-1.47793e-12
-1.47793e-12
-1.13687e-12
-5.68434e-13
-1.25056e-12
-3.41061e-13
-7.95808e-13
-7.95808e-13
-6.82121e-13
0
-5.68434e-13
0
-6.82121e-13
1.13687e-13
1.13687e-13
-1.13687e-13
-2.27374e-13
1.13687e-13
1.13687e-13
1.13687e-13
-2.27374e-13
0
-1.13687e-13
-4.54747e-13
-6.82121e-13
-3.41061e-13
-6.82121e-13
-5.68434e-13
0
2.27374e-13
2.27374e-13
-3.41061e-13
-7.95808e-13
-6.82121e-13
3.41061e-13
5.68434e-13
1.7053e-12
1.25056e-12
2.16005e-12
1.81899e-12
1.59162e-12
1.13687e-12
1.81899e-12
1.36424e-12
1.81899e-12
1.36424e-12
2.16005e-12
2.04636e-12
1.36424e-12
1.02318e-12
1.47793e-12
1.02318e-12
1.47793e-12
2.16005e-12
1.47793e-12
2.16005e-12
1.93268e-12
1.25056e-12
1.02318e-12
1.59162e-12
1.13687e-12
1.93268e-12
1.7053e-12
2.27374e-12
1.93268e-12
1.25056e-12
9.09495e-13
1.7053e-12
1.36424e-12
2.04636e-12
1.59162e-12
2.04636e-12
1.7053e-12
1.25056e-12
1.02318e-12
1.47793e-12
6.82121e-13
1.02318e-12
1.7053e-12
1.93268e-12
2.95586e-12
2.38742e-12
1.81899e-12
1.02318e-12
9.09495e-13
1.13687e-13
-1.13687e-13
-4.54747e-13
-3.41061e-13
-1.13687e-13
0
-1.13687e-13
-1.13687e-13
-1.13687e-13
1.13687e-13
0
0
-2.27374e-13
-6.82121e-13
-1.36424e-12
-1.47793e-12
-2.16005e-12
-1.47793e-12
-1.13687e-12
-2.04636e-12
-1.36424e-12
-2.16005e-12
-1.47793e-12
-2.04636e-12
-1.47793e-12
-2.04636e-12
-1.36424e-12
-2.16005e-12
-1.47793e-12
-2.27374e-12
-1.59162e-12
-2.16005e-12
-1.59162e-12
-2.50111e-12
-2.84217e-12
-3.75167e-12
-3.63798e-12
-4.77485e-12
-4.43379e-12
-3.86535e-12
-3.18323e-12
-2.72848e-12
-2.95586e-12
-2.50111e-12
-2.50111e-12
-2.6148e-12
-2.72848e-12
-2.27374e-12
-2.84217e-12
-2.27374e-12
-2.84217e-12
-2.50111e-12
-2.6148e-12
-2.04636e-12
-3.18323e-12
-2.72848e-12
-3.41061e-12
-2.72848e-12
-2.84217e-12
-2.72848e-12
-2.50111e-12
-1.36424e-12
-1.13687e-12
-3.41061e-13
-2.27374e-13
3.41061e-13
-4.54747e-13
-6.82121e-13
2.27374e-13
6.82121e-13
9.09495e-13
9.09495e-13
-3.41061e-13
0
-4.54747e-13
-5.68434e-13
-2.27374e-13
-2.27374e-13
5.68434e-13
-1.13687e-13
6.82121e-13
6.82121e-13
1.02318e-12
1.36424e-12
1.81899e-12
1.7053e-12
1.36424e-12
2.38742e-12
2.38742e-12
1.59162e-12
2.72848e-12
2.6148e-12
2.27374e-12
2.72848e-12
2.84217e-12
3.18323e-12
2.95586e-12
3.75167e-12
4.09273e-12
3.75167e-12
2.95586e-12
3.18323e-12
3.52429e-12
3.63798e-12
2.72848e-12
3.06954e-12
3.41061e-12
3.63798e-12
4.66116e-12
6.70752e-12
1.09139e-11
2.19416e-11
4.95675e-11
1.16074e-10
2.79783e-10
6.78824e-10
1.64039e-09
3.94084e-09
9.3944e-09
2.22115e-08
5.20608e-08
1.20933e-07
2.78332e-07
6.34562e-07
1.43276e-06
3.20299e-06
7.08776e-06
1.55208e-05
3.36233e-05
7.20362e-05
0.000152579
0.000319378
0.000660395
0.00134831
0.00271671
0.00539902
0.0105761
0.0204062
0.0387484
0.0723398
0.132625
0.238446
0.419667
0.721439
1.20794
1.96321
3.086
4.67757
6.8257
9.59164
13.0045
17.063
21.7407
26.9936
32.7667
38.9993
45.63
52.5989
59.8499
67.332
74.999
82.81
90.7294
98.7259
106.772
114.845
122.925
130.994
139.037
147.042
154.998
162.895
170.726
178.482
186.159
193.752
201.255
208.666
215.981
223.196
230.311
237.321
244.227
251.026
257.716
264.296
270.765
277.122
283.364
289.492
295.501
301.392
307.16
312.802
318.314
323.691
328.923
334.002
338.911
343.634
348.145
352.413
356.401
360.063
363.355
366.234
368.669
370.647
372.184
373.319
374.111
374.633
374.957
375.135
375.269
375.433
375.707
376.191
377.02
378.329
380.205
382.639
385.535
388.76
392.187
395.719
399.285
402.837
406.343
409.781
413.137
416.4
419.564
422.625
425.58
428.429
431.17
433.803
436.329
438.749
441.065
443.276
445.385
447.393
449.301
451.112
452.826
454.446
455.973
457.408
458.754
460.012
461.183
462.27
463.273
464.195
465.037
465.799
466.485
467.096
467.632
468.097
468.491
468.816
469.074
469.269
469.403
469.479
469.504
469.483
469.426
469.346
469.257
469.174
469.104
469.053
469.018
468.996
468.983
468.976
468.973
468.971
468.97
468.969
468.967
468.966
468.965
468.964
468.963
468.962
468.96
468.959
468.959
468.958
468.957
468.956
468.955
468.955
468.954
468.954
468.953
468.952
468.951
468.949
468.948
468.946
468.944
468.943
468.941
468.94
468.939
468.937
468.936
468.935
468.934
468.932
468.931
468.93
468.929
468.927
468.926
468.925
468.923
468.922
468.921
468.919
468.918
468.916
468.915
468.913
468.911
468.91
468.908
468.906
468.904
468.902
468.899
468.895
468.889
468.88
468.865
468.841
468.802
468.737
468.63
468.459
468.188
467.766
467.125
466.17
464.778
462.8
460.056
456.35
451.483
445.278
437.613
428.454
417.893
406.172
393.692
380.995
368.732
357.584
348.153
340.81
335.57
332.116
329.984
328.733
328.029
327.653
327.46
327.367
327.33
327.315
327.311
327.31
327.312
327.319
327.329
327.341
327.35
327.357
327.361
327.364
327.366
327.366
327.366
327.366
327.365
327.364
327.363
327.361
327.359
327.357
327.355
327.353
327.351
327.349
327.347
327.345
327.343
327.341
327.339
327.337
327.335
327.333
327.331
327.329
327.327
327.324
327.322
327.32
327.318
327.315
327.313
327.31
327.307
327.305
327.302
327.299
327.295
327.293
327.285
327.284
327.268
327.267
327.224
327.212
327.085
327.014
326.626
326.201
324.894
323.005
317.844
310.056
290.95
258.474
194.937
82.6052
16.1487
2.76799
0.456832
0.0747696
0.012204
0.00199037
0.000324525
5.29092e-05
8.62595e-06
1.40631e-06
2.29275e-07
3.73793e-08
6.0941e-09
9.93637e-10
1.62046e-10
2.65175e-11
4.43379e-12
7.38964e-13
1.27898e-13
4.26326e-14
5.68434e-14
7.10543e-14
7.10543e-14
2.84217e-14
-1.42109e-14
-1.42109e-14
4.26326e-14
4.26326e-14
4.26326e-14
1.42109e-14
-2.84217e-14
0
4.26326e-14
2.84217e-14
1.42109e-14
1.42109e-14
1.42109e-14
-1.42109e-14
0
-1.42109e-14
1.42109e-14
0
-1.42109e-14
-2.84217e-14
-2.84217e-14
-2.84217e-14
1.42109e-14
1.42109e-14
4.26326e-14
-1.42109e-14
-1.42109e-14
0
1.42109e-14
1.42109e-14
0
1.42109e-14
-2.84217e-14
1.42109e-14
0
0
0
0
-1.42109e-14
0
-1.42109e-14
1.42109e-14
0
-1.42109e-14
-2.84217e-14
-2.84217e-14
-2.84217e-14
1.42109e-14
1.42109e-14
4.26326e-14
-1.42109e-14
-1.42109e-14
0
1.42109e-14
1.42109e-14
0
1.42109e-14
-2.84217e-14
1.42109e-14
0
0
0
0
-1.42109e-14
0
-1.42109e-14
1.42109e-14
0
-1.42109e-14
-1.42109e-14
0
1.42109e-14
1.42109e-14
0
0
-1.42109e-14
-1.42109e-14
0
1.42109e-14
1.42109e-14
0
1.42109e-14
1.42109e-14
0
0
0
-1.42109e-14
0
-1.42109e-14
4.26326e-14
0
0
0
-1.42109e-14
-1.42109e-14
0
1.42109e-14
1.42109e-14
0
0
-1.42109e-14
-1.42109e-14
0
1.42109e-14
1.42109e-14
0
1.42109e-14
1.42109e-14
0
0
0
-2.84217e-14
1.42109e-14
-1.42109e-14
-1.42109e-14
-5.68434e-14
-2.84217e-14
-2.84217e-14
-2.84217e-14
-1.42109e-14
-1.42109e-14
-2.84217e-14
-2.84217e-14
-2.84217e-14
1.42109e-14
4.26326e-14
-2.84217e-14
2.84217e-14
4.26326e-14
4.26326e-14
4.26326e-14
4.26326e-14
4.26326e-14
4.26326e-14
0
-2.84217e-14
-2.84217e-14
1.42109e-14
-1.42109e-14
-1.42109e-14
-7.10543e-14
-2.84217e-14
-2.84217e-14
-2.84217e-14
-2.84217e-14
-2.84217e-14
-2.84217e-14
-2.84217e-14
-2.84217e-14
1.42109e-14
4.26326e-14
-2.84217e-14
2.84217e-14
4.26326e-14
4.26326e-14
4.26326e-14
4.26326e-14
4.26326e-14
4.26326e-14
0
-2.84217e-14
-2.84217e-14
1.42109e-14
-1.42109e-14
-1.42109e-14
-7.10543e-14
-2.84217e-14
-2.84217e-14
-2.84217e-14
-2.84217e-14
-2.84217e-14
-2.84217e-14
-2.84217e-14
-2.84217e-14
1.42109e-14
4.26326e-14
-2.84217e-14
2.84217e-14
4.26326e-14
4.26326e-14
4.26326e-14
4.26326e-14
4.26326e-14
4.26326e-14
0
-2.84217e-14
-2.84217e-14
1.42109e-14
-1.42109e-14
-1.42109e-14
-7.10543e-14
-2.84217e-14
-2.84217e-14
-2.84217e-14
-2.84217e-14
-2.84217e-14
-2.84217e-14
-5.68434e-14
-9.9476e-14
-2.13163e-13
-1.84741e-13
-1.7053e-13
-3.12639e-13
-3.83693e-13
-4.40536e-13
-6.39488e-13
-6.82121e-13
-7.81597e-13
-7.38964e-13
-7.81597e-13
-7.67386e-13
-7.53175e-13
-7.10543e-13
-5.82645e-13
-5.25802e-13
-4.83169e-13
-5.40012e-13
-5.40012e-13
-6.25278e-13
-6.11067e-13
-6.82121e-13
-7.10543e-13
-5.68434e-13
-5.11591e-13
-4.54747e-13
-3.69482e-13
-2.98428e-13
-2.98428e-13
-2.98428e-13
-4.12115e-13
-4.68958e-13
-4.83169e-13
-5.40012e-13
-5.54223e-13
-5.96856e-13
-5.40012e-13
-3.83693e-13
-2.41585e-13
-1.84741e-13
-2.27374e-13
-1.56319e-13
-8.52651e-14
-1.42109e-14
5.68434e-14
1.56319e-13
7.10543e-14
-5.68434e-14
2.84217e-14
-9.9476e-14
-1.42109e-13
-1.27898e-13
-9.9476e-14
-2.84217e-14
2.84217e-14
-5.68434e-14
-2.84217e-14
1.42109e-14
-5.68434e-14
1.42109e-14
4.26326e-14
1.56319e-13
1.27898e-13
9.9476e-14
1.42109e-13
8.52651e-14
9.9476e-14
1.13687e-13
2.41585e-13
3.83693e-13
3.97904e-13
2.55795e-13
2.70006e-13
3.2685e-13
3.69482e-13
3.97904e-13
4.83169e-13
6.39488e-13
6.6791e-13
6.11067e-13
5.40012e-13
5.25802e-13
4.9738e-13
3.2685e-13
2.70006e-13
4.26326e-13
5.68434e-13
7.24754e-13
7.67386e-13
8.3844e-13
7.81597e-13
8.3844e-13
7.10543e-13
7.10543e-13
6.53699e-13
6.25278e-13
5.40012e-13
4.9738e-13
4.83169e-13
3.2685e-13
3.83693e-13
3.83693e-13
)
;

boundaryField
{
    sides
    {
        type            calculated;
        value           nonuniform List<scalar> 2(3.55271e-13 4.54747e-13);
    }
    empty
    {
        type            empty;
    }
}


// ************************************************************************* //
