/*--------------------------------*- C++ -*----------------------------------*\
  =========                 |
  \\      /  F ield         | OpenFOAM: The Open Source CFD Toolbox
   \\    /   O peration     | Website:  https://openfoam.org
    \\  /    A nd           | Version:  13
     \\/     M anipulation  |
\*---------------------------------------------------------------------------*/
FoamFile
{
    format      ascii;
    class       volScalarField;
    location    "0.003";
    object      rho;
}
// * * * * * * * * * * * * * * * * * * * * * * * * * * * * * * * * * * * * * //

dimensions      [1 -3 0 0 0 0 0];

internalField   nonuniform List<scalar> 
1000
(
0.995488
0.995488
0.995488
0.995488
0.995488
0.995488
0.995488
0.995488
0.995488
0.995488
0.995488
0.995488
0.995488
0.995488
0.995488
0.995488
0.995488
0.995488
0.995488
0.995488
0.995488
0.995488
0.995488
0.995488
0.995488
0.995488
0.995488
0.995488
0.995488
0.995488
0.995488
0.995488
0.995488
0.995488
0.995488
0.995488
0.995488
0.995488
0.995488
0.995488
0.995488
0.995488
0.995488
0.995488
0.995488
0.995488
0.995488
0.995488
0.995488
0.995488
0.995488
0.995488
0.995488
0.995488
0.995488
0.995488
0.995488
0.995488
0.995488
0.995488
0.995488
0.995488
0.995488
0.995488
0.995488
0.995488
0.995488
0.995488
0.995488
0.995488
0.995488
0.995488
0.995488
0.995488
0.995488
0.995488
0.995488
0.995488
0.995488
0.995488
0.995488
0.995488
0.995488
0.995488
0.995488
0.995488
0.995488
0.995488
0.995488
0.995488
0.995488
0.995488
0.995488
0.995488
0.995488
0.995488
0.995488
0.995488
0.995488
0.995488
0.995488
0.995488
0.995488
0.995488
0.995488
0.995488
0.995488
0.995488
0.995488
0.995488
0.995488
0.995488
0.995488
0.995488
0.995488
0.995488
0.995488
0.995488
0.995488
0.995488
0.995488
0.995488
0.995488
0.995488
0.995488
0.995488
0.995488
0.995488
0.995488
0.995488
0.995488
0.995488
0.995488
0.995488
0.995488
0.995488
0.995488
0.995488
0.995488
0.995488
0.995488
0.995488
0.995488
0.995488
0.995488
0.995488
0.995488
0.995488
0.995488
0.995488
0.995488
0.995488
0.995488
0.995488
0.995488
0.995488
0.995488
0.995488
0.995488
0.995488
0.995488
0.995488
0.995488
0.995488
0.995488
0.995488
0.995488
0.995488
0.995488
0.995488
0.995488
0.995488
0.995488
0.995488
0.995488
0.995488
0.995488
0.995488
0.995488
0.995488
0.995488
0.995488
0.995488
0.995488
0.995488
0.995488
0.995488
0.995488
0.995488
0.995488
0.995488
0.995488
0.995488
0.995488
0.995488
0.995488
0.995488
0.995488
0.995488
0.995488
0.995488
0.995488
0.995488
0.995488
0.995488
0.995488
0.995488
0.995488
0.995488
0.995488
0.995488
0.995488
0.995488
0.995488
0.995488
0.995488
0.995488
0.995488
0.995488
0.995488
0.995488
0.995488
0.995488
0.995488
0.995488
0.995488
0.995488
0.995488
0.995488
0.995488
0.995488
0.995488
0.995488
0.995488
0.995488
0.995488
0.995488
0.995488
0.995488
0.995488
0.995488
0.995488
0.995488
0.995488
0.995488
0.995488
0.995488
0.995488
0.995488
0.995488
0.995488
0.995488
0.995488
0.995488
0.995488
0.995488
0.995488
0.995488
0.995488
0.995488
0.995488
0.995488
0.995488
0.995488
0.995488
0.995488
0.995488
0.995488
0.995488
0.995488
0.995488
0.995488
0.995488
0.995488
0.995488
0.995488
0.995488
0.995488
0.995488
0.995488
0.995488
0.995488
0.995488
0.995488
0.995488
0.995488
0.995488
0.995488
0.995488
0.995488
0.995488
0.995488
0.995488
0.995488
0.995488
0.995488
0.995488
0.995488
0.995488
0.995488
0.995488
0.995488
0.995488
0.995488
0.995488
0.995488
0.995488
0.995488
0.995488
0.995488
0.995488
0.995488
0.995488
0.995488
0.995488
0.995488
0.995488
0.995488
0.995488
0.995488
0.995488
0.995488
0.995488
0.995488
0.995488
0.995488
0.995488
0.995488
0.995488
0.995488
0.995488
0.995488
0.995488
0.995488
0.995488
0.995488
0.995488
0.995488
0.995488
0.995488
0.995488
0.995488
0.995488
0.995488
0.995488
0.995488
0.995488
0.995488
0.995488
0.995488
0.995488
0.995488
0.995488
0.995488
0.995488
0.995488
0.995488
0.995488
0.995488
0.995488
0.995488
0.995488
0.995488
0.995487
0.995487
0.995487
0.995486
0.995485
0.995482
0.995478
0.995468
0.995451
0.995421
0.995366
0.995271
0.995112
0.99485
0.994437
0.993811
0.992904
0.991652
0.990003
0.987925
0.985405
0.98245
0.979077
0.975316
0.971201
0.966769
0.962055
0.957095
0.951922
0.946566
0.941054
0.935409
0.929653
0.923804
0.917878
0.911889
0.90585
0.899771
0.89366
0.887527
0.881377
0.875218
0.869054
0.86289
0.85673
0.850578
0.844438
0.838311
0.832201
0.82611
0.82004
0.813993
0.807972
0.801978
0.796012
0.790078
0.784176
0.778309
0.772479
0.766689
0.760941
0.75524
0.749589
0.743994
0.738463
0.733004
0.727629
0.722356
0.717204
0.712202
0.707387
0.702804
0.698506
0.694556
0.691015
0.687937
0.685358
0.683289
0.681705
0.680555
0.679765
0.679252
0.678942
0.678742
0.678537
0.67821
0.67762
0.676579
0.674862
0.672264
0.6687
0.664234
0.659036
0.653301
0.647195
0.640847
0.634347
0.627757
0.621122
0.614473
0.60783
0.601209
0.594622
0.588076
0.581577
0.57513
0.568738
0.562403
0.556127
0.549911
0.543756
0.537662
0.53163
0.52566
0.519752
0.513905
0.50812
0.502396
0.496733
0.491131
0.48559
0.480109
0.474688
0.469328
0.464028
0.458789
0.453612
0.448498
0.443447
0.438463
0.433548
0.428707
0.423945
0.419271
0.414695
0.410237
0.405912
0.401757
0.397799
0.394124
0.390833
0.388023
0.385763
0.384065
0.382877
0.382094
0.381607
0.381321
0.38117
0.381102
0.381082
0.38108
0.381083
0.381085
0.381086
0.381087
0.381088
0.38109
0.381092
0.381094
0.381095
0.381095
0.381095
0.381094
0.381093
0.381092
0.381091
0.381088
0.381086
0.381084
0.381083
0.381083
0.381084
0.381086
0.381088
0.38109
0.381092
0.381093
0.381094
0.381094
0.381094
0.381094
0.381094
0.381093
0.381092
0.381091
0.38109
0.381089
0.381088
0.381086
0.381085
0.381084
0.381083
0.381082
0.38108
0.381079
0.381078
0.381076
0.381075
0.381074
0.381072
0.381071
0.38107
0.381068
0.381066
0.381064
0.381062
0.381058
0.381052
0.381042
0.381026
0.381
0.380957
0.380886
0.380772
0.380589
0.380304
0.379868
0.379212
0.378251
0.376871
0.37494
0.372305
0.368807
0.364293
0.358643
0.351794
0.343772
0.334713
0.324879
0.314652
0.304514
0.295003
0.28664
0.279825
0.274723
0.271212
0.268968
0.267617
0.266839
0.266413
0.26619
0.266079
0.26603
0.266011
0.266005
0.266004
0.266006
0.26601
0.266017
0.266026
0.266035
0.266042
0.266047
0.26605
0.266052
0.266053
0.266054
0.266054
0.266054
0.266054
0.266053
0.266052
0.266052
0.266051
0.266049
0.266048
0.266047
0.266046
0.266045
0.266044
0.266043
0.266042
0.266041
0.26604
0.266039
0.266038
0.266037
0.266036
0.266035
0.266034
0.266033
0.266032
0.266031
0.26603
0.266029
0.266028
0.266027
0.266026
0.266024
0.266024
0.266021
0.266023
0.266017
0.266021
0.266008
0.266021
0.265987
0.266017
0.265926
0.265992
0.26574
0.265842
0.265154
0.265066
0.262963
0.261819
0.254489
0.24837
0.225188
0.19398
0.146718
0.128637
0.125148
0.124553
0.124455
0.124439
0.124436
0.124436
0.124436
0.124436
0.124436
0.124436
0.124436
0.124436
0.124436
0.124436
0.124436
0.124436
0.124436
0.124436
0.124436
0.124436
0.124436
0.124436
0.124436
0.124436
0.124436
0.124436
0.124436
0.124436
0.124436
0.124436
0.124436
0.124436
0.124436
0.124436
0.124436
0.124436
0.124436
0.124436
0.124436
0.124436
0.124436
0.124436
0.124436
0.124436
0.124436
0.124436
0.124436
0.124436
0.124436
0.124436
0.124436
0.124436
0.124436
0.124436
0.124436
0.124436
0.124436
0.124436
0.124436
0.124436
0.124436
0.124436
0.124436
0.124436
0.124436
0.124436
0.124436
0.124436
0.124436
0.124436
0.124436
0.124436
0.124436
0.124436
0.124436
0.124436
0.124436
0.124436
0.124436
0.124436
0.124436
0.124436
0.124436
0.124436
0.124436
0.124436
0.124436
0.124436
0.124436
0.124436
0.124436
0.124436
0.124436
0.124436
0.124436
0.124436
0.124436
0.124436
0.124436
0.124436
0.124436
0.124436
0.124436
0.124436
0.124436
0.124436
0.124436
0.124436
0.124436
0.124436
0.124436
0.124436
0.124436
0.124436
0.124436
0.124436
0.124436
0.124436
0.124436
0.124436
0.124436
0.124436
0.124436
0.124436
0.124436
0.124436
0.124436
0.124436
0.124436
0.124436
0.124436
0.124436
0.124436
0.124436
0.124436
0.124436
0.124436
0.124436
0.124436
0.124436
0.124436
0.124436
0.124436
0.124436
0.124436
0.124436
0.124436
0.124436
0.124436
0.124436
0.124436
0.124436
0.124436
0.124436
0.124436
0.124436
0.124436
0.124436
0.124436
0.124436
0.124436
0.124436
0.124436
0.124436
0.124436
0.124436
0.124436
0.124436
0.124436
0.124436
0.124436
0.124436
0.124436
0.124436
0.124436
0.124436
0.124436
0.124436
0.124436
0.124436
0.124436
0.124436
0.124436
0.124436
0.124436
0.124436
0.124436
0.124436
0.124436
0.124436
0.124436
0.124436
0.124436
0.124436
0.124436
0.124436
0.124436
0.124436
0.124436
0.124436
0.124436
0.124436
0.124436
0.124436
0.124436
0.124436
0.124436
0.124436
0.124436
0.124436
0.124436
0.124436
0.124436
0.124436
0.124436
0.124436
0.124436
0.124436
0.124436
0.124436
0.124436
0.124436
0.124436
0.124436
0.124436
0.124436
0.124436
0.124436
0.124436
0.124436
0.124436
0.124436
0.124436
0.124436
0.124436
0.124436
0.124436
0.124436
0.124436
0.124436
0.124436
0.124436
0.124436
0.124436
0.124436
0.124436
0.124436
0.124436
0.124436
0.124436
0.124436
0.124436
0.124436
0.124436
0.124436
0.124436
0.124436
0.124436
0.124436
0.124436
0.124436
0.124436
0.124436
0.124436
0.124436
0.124436
0.124436
0.124436
0.124436
0.124436
0.124436
0.124436
0.124436
0.124436
0.124436
0.124436
0.124436
0.124436
0.124436
0.124436
0.124436
0.124436
0.124436
0.124436
0.124436
0.124436
0.124436
0.124436
0.124436
0.124436
0.124436
0.124436
0.124436
0.124436
0.124436
0.124436
0.124436
0.124436
0.124436
0.124436
0.124436
0.124436
0.124436
0.124436
0.124436
0.124436
0.124436
0.124436
0.124436
0.124436
0.124436
0.124436
0.124436
0.124436
0.124436
0.124436
0.124436
0.124436
0.124436
0.124436
0.124436
0.124436
0.124436
0.124436
)
;

boundaryField
{
    sides
    {
        type            calculated;
        value           nonuniform List<scalar> 2(0.124436 0.995488);
    }
    empty
    {
        type            empty;
    }
}


// ************************************************************************* //
