/*--------------------------------*- C++ -*----------------------------------*\
  =========                 |
  \\      /  F ield         | OpenFOAM: The Open Source CFD Toolbox
   \\    /   O peration     | Website:  https://openfoam.org
    \\  /    A nd           | Version:  13
     \\/     M anipulation  |
\*---------------------------------------------------------------------------*/
FoamFile
{
    format      ascii;
    class       volVectorField;
    location    "0.003";
    object      U;
}
// * * * * * * * * * * * * * * * * * * * * * * * * * * * * * * * * * * * * * //

dimensions      [0 1 -1 0 0 0 0];

internalField   nonuniform List<vector> 
1000
(
(-1.38843e-13 0 0)
(-1.02325e-13 0 0)
(-7.30827e-14 0 0)
(-2.19437e-14 0 0)
(7.30887e-15 0 0)
(3.65051e-14 0 0)
(-1.51957e-17 0 0)
(-6.57138e-14 0 0)
(-1.46303e-14 0 0)
(7.30598e-15 0 0)
(2.92117e-14 0 0)
(7.33421e-15 0 0)
(3.65076e-14 0 0)
(-1.48846e-17 0 0)
(-6.57153e-14 0 0)
(-1.46349e-14 0 0)
(-8.93901e-18 0 0)
(7.80296e-18 0 0)
(1.46165e-14 0 0)
(2.92107e-14 0 0)
(1.055e-17 0 0)
(-7.3149e-15 0 0)
(-2.92108e-14 0 0)
(-7.31615e-15 0 0)
(-4.96313e-18 0 0)
(1.13328e-26 0 0)
(4.96316e-18 0 0)
(7.31615e-15 0 0)
(2.92123e-14 0 0)
(7.33452e-15 0 0)
(3.6507e-14 0 0)
(-1.51948e-17 0 0)
(-6.57138e-14 0 0)
(-1.46303e-14 0 0)
(7.30598e-15 0 0)
(2.92117e-14 0 0)
(7.33421e-15 0 0)
(3.65076e-14 0 0)
(-1.48846e-17 0 0)
(-6.57153e-14 0 0)
(-1.46349e-14 0 0)
(-8.93901e-18 0 0)
(7.80296e-18 0 0)
(1.46165e-14 0 0)
(2.92107e-14 0 0)
(1.055e-17 0 0)
(-7.3149e-15 0 0)
(-2.92108e-14 0 0)
(-7.31615e-15 0 0)
(-4.96313e-18 0 0)
(1.13328e-26 0 0)
(4.96316e-18 0 0)
(7.31615e-15 0 0)
(2.92123e-14 0 0)
(7.33452e-15 0 0)
(3.6507e-14 0 0)
(-1.51948e-17 0 0)
(-6.57138e-14 0 0)
(-1.46303e-14 0 0)
(7.30598e-15 0 0)
(2.92117e-14 0 0)
(7.33421e-15 0 0)
(3.65076e-14 0 0)
(-1.48846e-17 0 0)
(-6.57153e-14 0 0)
(-1.46349e-14 0 0)
(-8.93901e-18 0 0)
(7.80296e-18 0 0)
(1.46165e-14 0 0)
(2.92107e-14 0 0)
(1.055e-17 0 0)
(-7.3149e-15 0 0)
(-2.92108e-14 0 0)
(-7.31615e-15 0 0)
(-4.96313e-18 0 0)
(1.13328e-26 0 0)
(4.96316e-18 0 0)
(7.31615e-15 0 0)
(2.92123e-14 0 0)
(7.33452e-15 0 0)
(3.6507e-14 0 0)
(-1.51948e-17 0 0)
(-6.57138e-14 0 0)
(-1.46303e-14 0 0)
(7.30598e-15 0 0)
(2.92117e-14 0 0)
(7.33421e-15 0 0)
(3.65076e-14 0 0)
(-1.48846e-17 0 0)
(-6.57153e-14 0 0)
(-1.46349e-14 0 0)
(-8.93901e-18 0 0)
(7.80296e-18 0 0)
(1.46165e-14 0 0)
(2.9211e-14 0 0)
(1.58238e-17 0 0)
(3.39605e-18 0 0)
(1.45881e-14 0 0)
(-2.91663e-14 0 0)
(7.29854e-15 0 0)
(-1.02066e-16 0 0)
(-1.68032e-13 0 0)
(-8.77335e-14 0 0)
(-6.57391e-14 0 0)
(-1.4583e-14 0 0)
(3.64675e-14 0 0)
(-5.84703e-14 0 0)
(-1.46148e-13 0 0)
(-1.75424e-13 0 0)
(-2.99651e-13 0 0)
(-4.23951e-13 0 0)
(-4.38527e-13 0 0)
(-4.7509e-13 0 0)
(-5.26209e-13 0 0)
(-4.31228e-13 0 0)
(-3.65483e-13 0 0)
(-3.72724e-13 0 0)
(-3.43549e-13 0 0)
(-3.87393e-13 0 0)
(-3.14243e-13 0 0)
(-4.23928e-13 0 0)
(-5.33563e-13 0 0)
(-4.16582e-13 0 0)
(-3.80076e-13 0 0)
(-3.94628e-13 0 0)
(-2.77809e-13 0 0)
(-2.55796e-13 0 0)
(-2.11971e-13 0 0)
(-1.46208e-13 0 0)
(-2.33867e-13 0 0)
(-3.36181e-13 0 0)
(-4.45844e-13 0 0)
(-4.67784e-13 0 0)
(-4.16623e-13 0 0)
(-4.67763e-13 0 0)
(-4.3854e-13 0 0)
(-3.58158e-13 0 0)
(-4.67774e-13 0 0)
(-5.33504e-13 0 0)
(-5.11622e-13 0 0)
(-4.3858e-13 0 0)
(-4.75047e-13 0 0)
(-4.02012e-13 0 0)
(-3.87383e-13 0 0)
(-3.06985e-13 0 0)
(-4.38536e-13 0 0)
(-5.0428e-13 0 0)
(-4.09288e-13 0 0)
(-3.65478e-13 0 0)
(-3.94598e-13 0 0)
(-2.12047e-13 0 0)
(-1.97336e-13 0 0)
(-2.26578e-13 0 0)
(-1.82762e-13 0 0)
(-2.2658e-13 0 0)
(-2.55722e-13 0 0)
(-5.84861e-14 0 0)
(-8.04129e-14 0 0)
(-9.50066e-14 0 0)
(-2.9216e-14 0 0)
(-1.02343e-13 0 0)
(4.38069e-14 0 0)
(1.46046e-14 0 0)
(-3.64911e-14 0 0)
(1.4608e-14 0 0)
(2.92227e-14 0 0)
(5.11521e-14 0 0)
(-5.11314e-14 0 0)
(-1.46256e-14 0 0)
(-2.19578e-14 0 0)
(-7.30787e-14 0 0)
(-1.60772e-13 0 0)
(-1.31552e-13 0 0)
(-8.7753e-14 0 0)
(-2.19175e-13 0 0)
(-7.31219e-14 0 0)
(1.45852e-14 0 0)
(7.3089e-14 0 0)
(-3.56906e-17 0 0)
(-1.46188e-13 0 0)
(-2.26491e-13 0 0)
(1.72883e-17 0 0)
(1.53459e-13 0 0)
(2.99638e-13 0 0)
(3.80084e-13 0 0)
(4.45823e-13 0 0)
(4.8967e-13 0 0)
(4.16599e-13 0 0)
(3.36265e-13 0 0)
(3.72749e-13 0 0)
(3.8736e-13 0 0)
(4.02007e-13 0 0)
(3.80081e-13 0 0)
(4.31202e-13 0 0)
(5.33498e-13 0 0)
(4.16622e-13 0 0)
(2.99699e-13 0 0)
(3.72756e-13 0 0)
(2.99658e-13 0 0)
(2.99734e-13 0 0)
(4.53128e-13 0 0)
(4.75065e-13 0 0)
(4.31211e-13 0 0)
(5.11584e-13 0 0)
(3.80071e-13 0 0)
(3.14327e-13 0 0)
(3.50789e-13 0 0)
(3.28943e-13 0 0)
(3.58131e-13 0 0)
(4.67802e-13 0 0)
(5.26242e-13 0 0)
(5.04272e-13 0 0)
(4.16598e-13 0 0)
(2.85101e-13 0 0)
(3.58128e-13 0 0)
(4.01973e-13 0 0)
(4.23951e-13 0 0)
(4.31228e-13 0 0)
(4.3849e-13 0 0)
(4.89671e-13 0 0)
(3.72791e-13 0 0)
(2.55809e-13 0 0)
(3.3623e-13 0 0)
(2.55753e-13 0 0)
(1.90127e-13 0 0)
(3.65454e-13 0 0)
(4.16612e-13 0 0)
(6.13854e-13 0 0)
(6.79738e-13 0 0)
(5.1168e-13 0 0)
(3.72744e-13 0 0)
(2.48526e-13 0 0)
(1.31476e-13 0 0)
(-7.2889e-15 0 0)
(-6.57113e-14 0 0)
(-8.04034e-14 0 0)
(-4.38699e-14 0 0)
(-2.19246e-14 0 0)
(-7.33338e-15 0 0)
(-3.65124e-14 0 0)
(-7.31966e-15 0 0)
(-3.91873e-18 0 0)
(1.56565e-17 0 0)
(2.19011e-14 0 0)
(-7.31828e-15 0 0)
(-8.76799e-14 0 0)
(-2.11986e-13 0 0)
(-3.43496e-13 0 0)
(-4.82415e-13 0 0)
(-5.189e-13 0 0)
(-2.85058e-13 0 0)
(-4.4587e-13 0 0)
(-4.31208e-13 0 0)
(-4.38545e-13 0 0)
(-4.75074e-13 0 0)
(-4.53174e-13 0 0)
(-4.75054e-13 0 0)
(-4.82403e-13 0 0)
(-4.53153e-13 0 0)
(-4.75066e-13 0 0)
(-4.75111e-13 0 0)
(-4.89689e-13 0 0)
(-4.82375e-13 0 0)
(-4.8972e-13 0 0)
(-4.67758e-13 0 0)
(-5.33561e-13 0 0)
(-6.72416e-13 0 0)
(-8.25896e-13 0 0)
(-8.84402e-13 0 0)
(-1.05249e-12 0 0)
(-1.11824e-12 0 0)
(-1.02328e-12 0 0)
(-8.77051e-13 0 0)
(-7.60159e-13 0 0)
(-7.82011e-13 0 0)
(-7.30918e-13 0 0)
(-5.92046e-13 0 0)
(-7.08961e-13 0 0)
(-6.65116e-13 0 0)
(-6.94319e-13 0 0)
(-6.57831e-13 0 0)
(-6.72395e-13 0 0)
(-6.65129e-13 0 0)
(-6.9435e-13 0 0)
(-6.57792e-13 0 0)
(-5.99358e-13 0 0)
(-6.9434e-13 0 0)
(-7.45511e-13 0 0)
(-8.33231e-13 0 0)
(-7.67418e-13 0 0)
(-7.60136e-13 0 0)
(-7.38186e-13 0 0)
(-6.72422e-13 0 0)
(-5.33553e-13 0 0)
(-3.28907e-13 0 0)
(-1.97324e-13 0 0)
(-6.57875e-14 0 0)
(7.31801e-15 0 0)
(-6.57911e-14 0 0)
(-1.53458e-13 0 0)
(-4.38865e-14 0 0)
(1.09615e-13 0 0)
(1.75411e-13 0 0)
(2.33896e-13 0 0)
(5.11828e-14 0 0)
(-2.92649e-14 0 0)
(-1.46362e-14 0 0)
(-2.33848e-13 0 0)
(2.04987e-18 0 0)
(-2.92486e-14 0 0)
(8.04088e-14 0 0)
(7.30908e-14 0 0)
(4.3881e-14 0 0)
(1.38885e-13 0 0)
(2.33849e-13 0 0)
(3.654e-13 0 0)
(3.50892e-13 0 0)
(4.16591e-13 0 0)
(4.16602e-13 0 0)
(4.67775e-13 0 0)
(6.57774e-13 0 0)
(4.45911e-13 0 0)
(5.26213e-13 0 0)
(7.30823e-13 0 0)
(5.33622e-13 0 0)
(6.28585e-13 0 0)
(7.08919e-13 0 0)
(7.89362e-13 0 0)
(7.67467e-13 0 0)
(8.18629e-13 0 0)
(1.03781e-12 0 0)
(9.86698e-13 0 0)
(8.4056e-13 0 0)
(7.67455e-13 0 0)
(8.77042e-13 0 0)
(9.79379e-13 0 0)
(7.89386e-13 0 0)
(6.94422e-13 0 0)
(8.91642e-13 0 0)
(8.40485e-13 0 0)
(1.03055e-12 0 0)
(1.4107e-12 0 0)
(2.11958e-12 0 0)
(3.94683e-12 0 0)
(8.20799e-12 0 0)
(1.9515e-11 0 0)
(4.57981e-11 0 0)
(1.11886e-10 0 0)
(2.70527e-10 0 0)
(6.52802e-10 0 0)
(1.5627e-09 0 0)
(3.71246e-09 0 0)
(8.74226e-09 0 0)
(2.04091e-08 0 0)
(4.72076e-08 0 0)
(1.0818e-07 0 0)
(2.45532e-07 0 0)
(5.51823e-07 0 0)
(1.22774e-06 0 0)
(2.70344e-06 0 0)
(5.88981e-06 0 0)
(1.26919e-05 0 0)
(2.70427e-05 0 0)
(5.69519e-05 0 0)
(0.000118503 0 0)
(0.000243513 0 0)
(0.000493938 0 0)
(0.00098843 0 0)
(0.00195019 0 0)
(0.00379108 0 0)
(0.00725538 0 0)
(0.0136575 0 0)
(0.0252593 0 0)
(0.0458405 0 0)
(0.0815007 0 0)
(0.141671 0 0)
(0.240157 0 0)
(0.395769 0 0)
(0.631835 0 0)
(0.97405 0 0)
(1.44695 0 0)
(2.07036 0 0)
(2.85713 0 0)
(3.81276 0 0)
(4.93621 0 0)
(6.22136 0 0)
(7.65863 0 0)
(9.23633 0 0)
(10.9418 0 0)
(12.7623 0 0)
(14.6855 0 0)
(16.6999 0 0)
(18.7947 0 0)
(20.9606 0 0)
(23.1891 0 0)
(25.4726 0 0)
(27.8045 0 0)
(30.1792 0 0)
(32.5915 0 0)
(35.0372 0 0)
(37.5122 0 0)
(40.0135 0 0)
(42.5379 0 0)
(45.083 0 0)
(47.6464 0 0)
(50.2264 0 0)
(52.8209 0 0)
(55.4286 0 0)
(58.048 0 0)
(60.6778 0 0)
(63.317 0 0)
(65.9644 0 0)
(68.6191 0 0)
(71.2802 0 0)
(73.9468 0 0)
(76.618 0 0)
(79.2932 0 0)
(81.9713 0 0)
(84.6516 0 0)
(87.3332 0 0)
(90.015 0 0)
(92.696 0 0)
(95.3749 0 0)
(98.0501 0 0)
(100.72 0 0)
(103.382 0 0)
(106.033 0 0)
(108.671 0 0)
(111.289 0 0)
(113.882 0 0)
(116.441 0 0)
(118.956 0 0)
(121.411 0 0)
(123.788 0 0)
(126.063 0 0)
(128.206 0 0)
(130.186 0 0)
(131.969 0 0)
(133.524 0 0)
(134.831 0 0)
(135.883 0 0)
(136.689 0 0)
(137.276 0 0)
(137.678 0 0)
(137.94 0 0)
(138.103 0 0)
(138.201 0 0)
(138.292 0 0)
(138.435 0 0)
(138.69 0 0)
(139.14 0 0)
(139.886 0 0)
(141.018 0 0)
(142.578 0 0)
(144.545 0 0)
(146.85 0 0)
(149.416 0 0)
(152.172 0 0)
(155.066 0 0)
(158.058 0 0)
(161.124 0 0)
(164.243 0 0)
(167.402 0 0)
(170.593 0 0)
(173.808 0 0)
(177.042 0 0)
(180.292 0 0)
(183.554 0 0)
(186.827 0 0)
(190.108 0 0)
(193.396 0 0)
(196.69 0 0)
(199.99 0 0)
(203.294 0 0)
(206.603 0 0)
(209.915 0 0)
(213.23 0 0)
(216.549 0 0)
(219.87 0 0)
(223.193 0 0)
(226.519 0 0)
(229.847 0 0)
(233.177 0 0)
(236.508 0 0)
(239.841 0 0)
(243.174 0 0)
(246.508 0 0)
(249.842 0 0)
(253.175 0 0)
(256.507 0 0)
(259.836 0 0)
(263.161 0 0)
(266.479 0 0)
(269.789 0 0)
(273.086 0 0)
(276.365 0 0)
(279.621 0 0)
(282.842 0 0)
(286.018 0 0)
(289.128 0 0)
(292.153 0 0)
(295.051 0 0)
(297.775 0 0)
(300.238 0 0)
(302.358 0 0)
(304.075 0 0)
(305.37 0 0)
(306.28 0 0)
(306.88 0 0)
(307.255 0 0)
(307.474 0 0)
(307.591 0 0)
(307.642 0 0)
(307.658 0 0)
(307.659 0 0)
(307.656 0 0)
(307.653 0 0)
(307.652 0 0)
(307.65 0 0)
(307.648 0 0)
(307.646 0 0)
(307.644 0 0)
(307.642 0 0)
(307.64 0 0)
(307.639 0 0)
(307.639 0 0)
(307.639 0 0)
(307.639 0 0)
(307.639 0 0)
(307.64 0 0)
(307.642 0 0)
(307.643 0 0)
(307.644 0 0)
(307.644 0 0)
(307.644 0 0)
(307.642 0 0)
(307.64 0 0)
(307.637 0 0)
(307.634 0 0)
(307.632 0 0)
(307.63 0 0)
(307.628 0 0)
(307.627 0 0)
(307.626 0 0)
(307.625 0 0)
(307.625 0 0)
(307.625 0 0)
(307.625 0 0)
(307.625 0 0)
(307.625 0 0)
(307.625 0 0)
(307.625 0 0)
(307.625 0 0)
(307.625 0 0)
(307.625 0 0)
(307.625 0 0)
(307.625 0 0)
(307.625 0 0)
(307.625 0 0)
(307.625 0 0)
(307.626 0 0)
(307.626 0 0)
(307.626 0 0)
(307.626 0 0)
(307.626 0 0)
(307.626 0 0)
(307.625 0 0)
(307.625 0 0)
(307.625 0 0)
(307.625 0 0)
(307.625 0 0)
(307.625 0 0)
(307.625 0 0)
(307.625 0 0)
(307.625 0 0)
(307.624 0 0)
(307.624 0 0)
(307.624 0 0)
(307.624 0 0)
(307.624 0 0)
(307.624 0 0)
(307.624 0 0)
(307.624 0 0)
(307.625 0 0)
(307.626 0 0)
(307.627 0 0)
(307.631 0 0)
(307.636 0 0)
(307.642 0 0)
(307.651 0 0)
(307.662 0 0)
(307.672 0 0)
(307.679 0 0)
(307.682 0 0)
(307.678 0 0)
(307.667 0 0)
(307.651 0 0)
(307.636 0 0)
(307.627 0 0)
(307.622 0 0)
(307.62 0 0)
(307.621 0 0)
(307.62 0 0)
(307.619 0 0)
(307.621 0 0)
(307.619 0 0)
(307.618 0 0)
(307.619 0 0)
(307.618 0 0)
(307.617 0 0)
(307.617 0 0)
(307.617 0 0)
(307.616 0 0)
(307.616 0 0)
(307.616 0 0)
(307.615 0 0)
(307.615 0 0)
(307.614 0 0)
(307.614 0 0)
(307.614 0 0)
(307.613 0 0)
(307.612 0 0)
(307.612 0 0)
(307.611 0 0)
(307.611 0 0)
(307.61 0 0)
(307.61 0 0)
(307.609 0 0)
(307.609 0 0)
(307.608 0 0)
(307.607 0 0)
(307.607 0 0)
(307.606 0 0)
(307.605 0 0)
(307.605 0 0)
(307.604 0 0)
(307.603 0 0)
(307.603 0 0)
(307.602 0 0)
(307.601 0 0)
(307.6 0 0)
(307.599 0 0)
(307.598 0 0)
(307.598 0 0)
(307.597 0 0)
(307.596 0 0)
(307.595 0 0)
(307.593 0 0)
(307.592 0 0)
(307.591 0 0)
(307.59 0 0)
(307.588 0 0)
(307.588 0 0)
(307.584 0 0)
(307.586 0 0)
(307.579 0 0)
(307.583 0 0)
(307.571 0 0)
(307.581 0 0)
(307.554 0 0)
(307.571 0 0)
(307.51 0 0)
(307.527 0 0)
(307.376 0 0)
(307.344 0 0)
(306.961 0 0)
(306.57 0 0)
(305.653 0 0)
(303.188 0 0)
(300.475 0 0)
(289.651 0 0)
(278.32 0 0)
(238.673 0 0)
(177.366 0 0)
(63.8761 0 0)
(12.0058 0 0)
(2.00748 0 0)
(0.328584 0 0)
(0.053622 0 0)
(0.00874346 0 0)
(0.00142551 0 0)
(0.000232403 0 0)
(3.78889e-05 0 0)
(6.17709e-06 0 0)
(1.00707e-06 0 0)
(1.64185e-07 0 0)
(2.67672e-08 0 0)
(4.36434e-09 0 0)
(7.11537e-10 0 0)
(1.16245e-10 0 0)
(1.91002e-11 0 0)
(3.23816e-12 0 0)
(4.97448e-13 0 0)
(1.38861e-13 0 0)
(1.24063e-13 0 0)
(1.16994e-13 0 0)
(1.4594e-13 0 0)
(9.49675e-14 0 0)
(3.65231e-14 0 0)
(-2.85703e-14 0 0)
(8.72437e-14 0 0)
(6.59525e-14 0 0)
(1.01958e-13 0 0)
(4.37626e-14 0 0)
(-5.06609e-14 0 0)
(-1.42485e-14 0 0)
(1.30813e-13 0 0)
(6.58712e-14 0 0)
(4.38363e-14 0 0)
(7.55171e-15 0 0)
(3.62941e-14 0 0)
(-8.4733e-17 0 0)
(-5.80317e-14 0 0)
(-7.27165e-15 0 0)
(5.0783e-14 0 0)
(1.46414e-14 0 0)
(-7.37141e-15 0 0)
(-5.09192e-14 0 0)
(-2.94108e-14 0 0)
(-5.82655e-14 0 0)
(-3.63757e-14 0 0)
(2.20557e-14 0 0)
(1.23517e-13 0 0)
(3.66341e-14 0 0)
(-2.15817e-14 0 0)
(7.16998e-15 0 0)
(-7.15741e-15 0 0)
(2.173e-14 0 0)
(-1.04723e-17 0 0)
(-2.18271e-14 0 0)
(-2.89608e-14 0 0)
(5.072e-14 0 0)
(1.45581e-16 0 0)
(-3.23764e-17 0 0)
(-1.44538e-14 0 0)
(1.44388e-14 0 0)
(-1.56668e-16 0 0)
(-5.80415e-14 0 0)
(-7.27361e-15 0 0)
(5.0785e-14 0 0)
(1.46414e-14 0 0)
(-7.37141e-15 0 0)
(-5.09192e-14 0 0)
(-2.94108e-14 0 0)
(-5.82655e-14 0 0)
(-3.63757e-14 0 0)
(2.20557e-14 0 0)
(1.23517e-13 0 0)
(3.66341e-14 0 0)
(-2.15817e-14 0 0)
(7.16998e-15 0 0)
(-7.15741e-15 0 0)
(2.173e-14 0 0)
(-1.04723e-17 0 0)
(-2.18271e-14 0 0)
(-2.89608e-14 0 0)
(5.072e-14 0 0)
(1.45581e-16 0 0)
(-3.23764e-17 0 0)
(-1.44538e-14 0 0)
(1.44388e-14 0 0)
(-1.56668e-16 0 0)
(-5.80415e-14 0 0)
(-7.27361e-15 0 0)
(5.07871e-14 0 0)
(1.46725e-14 0 0)
(-4.36128e-18 0 0)
(-2.17354e-14 0 0)
(7.13228e-15 0 0)
(-1.44098e-14 0 0)
(2.17381e-14 0 0)
(7.32295e-15 0 0)
(2.52979e-17 0 0)
(-6.91218e-17 0 0)
(-2.17376e-14 0 0)
(7.15742e-15 0 0)
(-7.1596e-15 0 0)
(2.17059e-14 0 0)
(-7.2245e-15 0 0)
(-1.44455e-14 0 0)
(2.17059e-14 0 0)
(6.92718e-17 0 0)
(4.21482e-18 0 0)
(-6.70057e-17 0 0)
(-1.47207e-14 0 0)
(-5.82069e-14 0 0)
(-3.6409e-14 0 0)
(1.46018e-14 0 0)
(6.54293e-14 0 0)
(2.92491e-14 0 0)
(1.10546e-16 0 0)
(-6.27634e-17 0 0)
(-2.17397e-14 0 0)
(7.13226e-15 0 0)
(-1.44098e-14 0 0)
(2.17381e-14 0 0)
(7.32295e-15 0 0)
(2.52979e-17 0 0)
(-6.91218e-17 0 0)
(-2.17376e-14 0 0)
(7.15742e-15 0 0)
(-7.1596e-15 0 0)
(2.17059e-14 0 0)
(-7.2245e-15 0 0)
(-1.44455e-14 0 0)
(2.17059e-14 0 0)
(6.92663e-17 0 0)
(2.36039e-18 0 0)
(-8.86777e-17 0 0)
(-2.19478e-14 0 0)
(-5.09147e-14 0 0)
(-1.48283e-14 0 0)
(-4.38955e-14 0 0)
(-7.2784e-14 0 0)
(-1.49873e-14 0 0)
(-7.27379e-14 0 0)
(-2.22569e-14 0 0)
(-7.27571e-14 0 0)
(-2.21942e-14 0 0)
(-5.09891e-14 0 0)
(-2.93902e-14 0 0)
(-5.0969e-14 0 0)
(-2.19232e-14 0 0)
(2.17754e-14 0 0)
(-7.10102e-15 0 0)
(2.90862e-14 0 0)
(3.67376e-14 0 0)
(1.01952e-13 0 0)
(5.14928e-14 0 0)
(1.09319e-13 0 0)
(6.59958e-14 0 0)
(1.02067e-13 0 0)
(5.10694e-14 0 0)
(-2.1785e-14 0 0)
(-5.09691e-14 0 0)
(-3.64988e-14 0 0)
(-1.46109e-14 0 0)
(2.14246e-14 0 0)
(-9.44266e-14 0 0)
(-2.94804e-14 0 0)
(-4.37503e-14 0 0)
(-2.93726e-14 0 0)
(-5.10058e-14 0 0)
(-2.93926e-14 0 0)
(-5.10078e-14 0 0)
(-2.93905e-14 0 0)
(-5.09691e-14 0 0)
(-2.1921e-14 0 0)
(2.17722e-14 0 0)
(-7.10627e-15 0 0)
(2.9112e-14 0 0)
(4.39446e-14 0 0)
(8.01899e-14 0 0)
(5.86467e-14 0 0)
(8.75198e-14 0 0)
(6.59444e-14 0 0)
(1.02064e-13 0 0)
(5.10683e-14 0 0)
(-2.17843e-14 0 0)
(-5.09691e-14 0 0)
(-3.64988e-14 0 0)
(-1.46109e-14 0 0)
(2.14246e-14 0 0)
(-9.44266e-14 0 0)
(-2.94804e-14 0 0)
(-4.37503e-14 0 0)
(-2.93726e-14 0 0)
(-5.10058e-14 0 0)
(-2.93926e-14 0 0)
(-5.10078e-14 0 0)
(-2.93905e-14 0 0)
(-5.09691e-14 0 0)
(-2.1921e-14 0 0)
(2.17722e-14 0 0)
(-7.10627e-15 0 0)
(2.9112e-14 0 0)
(4.39446e-14 0 0)
(8.01899e-14 0 0)
(5.86467e-14 0 0)
(8.75198e-14 0 0)
(6.59444e-14 0 0)
(1.02064e-13 0 0)
(5.10683e-14 0 0)
(-2.17843e-14 0 0)
(-5.09692e-14 0 0)
(-3.65001e-14 0 0)
(-1.46233e-14 0 0)
(1.41626e-14 0 0)
(-9.44711e-14 0 0)
(-2.21442e-14 0 0)
(-3.64711e-14 0 0)
(-2.93596e-14 0 0)
(-5.10007e-14 0 0)
(-2.93922e-14 0 0)
(-5.09915e-14 0 0)
(-5.85278e-14 0 0)
(-1.17022e-13 0 0)
(-3.06951e-13 0 0)
(-4.38447e-13 0 0)
(-3.00058e-13 0 0)
(-4.96996e-13 0 0)
(-7.23649e-13 0 0)
(-8.33328e-13 0 0)
(-1.19079e-12 0 0)
(-1.31585e-12 0 0)
(-1.46155e-12 0 0)
(-1.53451e-12 0 0)
(-1.45512e-12 0 0)
(-1.57161e-12 0 0)
(-1.52003e-12 0 0)
(-1.61462e-12 0 0)
(-1.24319e-12 0 0)
(-1.14002e-12 0 0)
(-1.03731e-12 0 0)
(-9.58234e-13 0 0)
(-1.03094e-12 0 0)
(-1.20555e-12 0 0)
(-1.29352e-12 0 0)
(-1.26497e-12 0 0)
(-1.45392e-12 0 0)
(-1.31573e-12 0 0)
(-1.11829e-12 0 0)
(-9.86347e-13 0 0)
(-7.52984e-13 0 0)
(-5.85087e-13 0 0)
(-6.13889e-13 0 0)
(-5.84691e-13 0 0)
(-6.36275e-13 0 0)
(-9.49552e-13 0 0)
(-9.06655e-13 0 0)
(-1.03797e-12 0 0)
(-1.16854e-12 0 0)
(-1.10395e-12 0 0)
(-1.17672e-12 0 0)
(-9.35104e-13 0 0)
(-5.77416e-13 0 0)
(-3.2973e-13 0 0)
(-4.52769e-13 0 0)
(-4.16342e-13 0 0)
(-2.19671e-13 0 0)
(-1.23879e-13 0 0)
(-2.94153e-14 0 0)
(2.63188e-13 0 0)
(3.13391e-13 0 0)
(-7.26271e-14 0 0)
(5.09893e-14 0 0)
(-4.36404e-14 0 0)
(-3.21156e-13 0 0)
(-2.41579e-13 0 0)
(-2.33947e-13 0 0)
(-1.17077e-13 0 0)
(7.32213e-14 0 0)
(1.39091e-14 0 0)
(-1.31004e-13 0 0)
(-2.19339e-14 0 0)
(-6.59819e-14 0 0)
(-1.45359e-13 0 0)
(4.36778e-14 0 0)
(1.97445e-13 0 0)
(2.99665e-13 0 0)
(1.97756e-13 0 0)
(3.50108e-13 0 0)
(2.48414e-13 0 0)
(1.24753e-13 0 0)
(1.82464e-13 0 0)
(3.51203e-13 0 0)
(7.22978e-13 0 0)
(8.55117e-13 0 0)
(6.50046e-13 0 0)
(5.11848e-13 0 0)
(6.28552e-13 0 0)
(6.72573e-13 0 0)
(7.60384e-13 0 0)
(8.47725e-13 0 0)
(1.13997e-12 0 0)
(1.31566e-12 0 0)
(1.26456e-12 0 0)
(1.18347e-12 0 0)
(1.00218e-12 0 0)
(1.04491e-12 0 0)
(8.91565e-13 0 0)
(5.41724e-13 0 0)
(6.64897e-13 0 0)
(1.01586e-12 0 0)
(1.2651e-12 0 0)
(1.55648e-12 0 0)
(1.73139e-12 0 0)
(1.62281e-12 0 0)
(1.60801e-12 0 0)
(1.53495e-12 0 0)
(1.42558e-12 0 0)
(1.39583e-12 0 0)
(1.3229e-12 0 0)
(1.21253e-12 0 0)
(1.03119e-12 0 0)
(1.06707e-12 0 0)
(7.74761e-13 0 0)
(6.79956e-13 0 0)
(8.61972e-13 0 0)
(7.38322e-13 0 0)
)
;

boundaryField
{
    sides
    {
        type            zeroGradient;
    }
    empty
    {
        type            empty;
    }
}


// ************************************************************************* //
