# Probe 0 (0 0 0)
# Time        0            
0             0.000246969  
