/*--------------------------------*- C++ -*----------------------------------*\
  =========                 |
  \\      /  F ield         | OpenFOAM: The Open Source CFD Toolbox
   \\    /   O peration     | Website:  https://openfoam.org
    \\  /    A nd           | Version:  13
     \\/     M anipulation  |
\*---------------------------------------------------------------------------*/
FoamFile
{
    format      ascii;
    class       volScalarField;
    location    "0.007";
    object      mag(U);
}
// * * * * * * * * * * * * * * * * * * * * * * * * * * * * * * * * * * * * * //

dimensions      [0 1 -1 0 0 0 0];

internalField   nonuniform List<scalar> 
1000
(
7.30847e-13
7.0896e-13
4.75075e-13
4.31255e-13
5.26253e-13
7.23688e-13
8.84395e-13
1.08156e-12
1.10368e-12
1.1987e-12
1.31564e-12
1.38866e-12
1.38875e-12
1.24982e-12
1.067e-12
1.15487e-12
1.24252e-12
1.2498e-12
9.86749e-13
1.01598e-12
1.11824e-12
1.08179e-12
1.26437e-12
1.49832e-12
1.44717e-12
1.46178e-12
1.57141e-12
1.3741e-12
1.27909e-12
1.35212e-12
1.30843e-12
1.48369e-12
1.53473e-12
1.2864e-12
1.16219e-12
1.29368e-12
1.24982e-12
1.35222e-12
1.42518e-12
1.40325e-12
1.51294e-12
1.53491e-12
1.4764e-12
1.40337e-12
1.52759e-12
1.40328e-12
1.35954e-12
1.40325e-12
1.52751e-12
1.41789e-12
1.24256e-12
1.23522e-12
1.17676e-12
1.21332e-12
1.18401e-12
1.20609e-12
1.33021e-12
1.30085e-12
1.10365e-12
9.94064e-13
1.05248e-12
1.02325e-12
1.09642e-12
1.19862e-12
1.0597e-12
1.08903e-12
9.64831e-13
8.77031e-13
7.38238e-13
5.11662e-13
5.4815e-13
5.26329e-13
6.13859e-13
7.08946e-13
7.08984e-13
8.113e-13
8.91652e-13
9.1364e-13
8.91731e-13
9.86681e-13
9.211e-13
9.8664e-13
1.0596e-12
9.4288e-13
6.57928e-13
8.91679e-13
7.67405e-13
5.0439e-13
4.16502e-13
2.5575e-13
2.85049e-13
1.75438e-13
1.09607e-13
8.05311e-14
2.19263e-13
2.9962e-13
2.48657e-13
5.1152e-13
5.69906e-13
4.09313e-13
2.92587e-13
3.43427e-13
2.33898e-13
1.46553e-14
7.2757e-15
2.18713e-14
7.30552e-14
3.66146e-14
1.90032e-13
3.87327e-13
4.82373e-13
6.57671e-13
4.53127e-13
3.43783e-13
3.94673e-13
3.57999e-13
2.92424e-13
2.8502e-13
2.19229e-13
2.26532e-13
2.19263e-13
1.75515e-13
1.97365e-13
1.68069e-13
2.63283e-13
4.67589e-13
4.38602e-13
4.82359e-13
4.53006e-13
3.50842e-13
2.77859e-13
3.43545e-13
4.53161e-13
4.60415e-13
4.4586e-13
5.18944e-13
6.13845e-13
5.40869e-13
6.21372e-13
6.79749e-13
7.08889e-13
6.72506e-13
6.5775e-13
6.94407e-13
6.64927e-13
5.40922e-13
3.87544e-13
2.92332e-13
2.33783e-13
1.46411e-13
3.21385e-13
2.41216e-13
3.21607e-13
3.58011e-13
2.41205e-13
1.318e-13
1.38712e-13
3.65418e-14
9.49872e-14
1.09634e-13
4.37854e-14
2.94308e-14
1.02368e-13
2.92185e-13
2.77768e-13
2.55792e-13
3.14375e-13
4.38439e-13
4.5314e-13
4.16738e-13
5.33551e-13
7.0887e-13
8.55129e-13
8.626e-13
1.03759e-12
9.13703e-13
9.35608e-13
9.50215e-13
7.67548e-13
1.97302e-13
1.51328e-12
5.45249e-12
1.38797e-11
3.06319e-11
6.68771e-11
1.38118e-10
2.85496e-10
5.78878e-10
1.16963e-09
2.34122e-09
4.66269e-09
9.22239e-09
1.81377e-08
3.54429e-08
6.88349e-08
1.32825e-07
2.5464e-07
4.84914e-07
9.17153e-07
1.72258e-06
3.21224e-06
5.94625e-06
1.09246e-05
1.99157e-05
3.6018e-05
6.46057e-05
0.000114903
0.000202571
0.000353888
0.000612414
0.00104941
0.00177983
0.00298626
0.00495391
0.00812007
0.0131413
0.0209802
0.0330093
0.0511246
0.0778489
0.116399
0.170681
0.245198
0.344852
0.474676
0.639531
0.843822
1.09126
1.38474
1.7262
2.1167
2.55644
3.04485
3.58075
4.16243
4.78782
5.4546
6.16028
6.90231
7.67812
8.48522
9.32119
10.1837
11.0707
11.98
12.9098
13.8584
14.8241
15.8056
16.8015
17.8105
18.8316
19.8637
20.9061
21.9577
23.0179
24.086
25.1614
26.2435
27.3318
28.4258
29.5251
30.6294
31.7382
32.8513
33.9683
35.089
36.2131
37.3404
38.4707
39.6039
40.7396
41.8778
43.0183
44.161
45.3057
46.4523
47.6008
48.7509
49.9026
51.0559
52.2106
53.3666
54.5239
55.6824
56.842
58.0027
59.1644
60.3271
61.4907
62.6551
63.8204
64.9864
66.1531
67.3205
68.4886
69.6572
70.8264
71.9961
73.1664
74.337
75.5081
76.6796
77.8514
79.0235
80.1959
81.3686
82.5415
83.7145
84.8877
86.0611
87.2344
88.4078
89.5812
90.7546
91.9278
93.1009
94.2738
95.4464
96.6187
97.7905
98.962
100.133
101.303
102.473
103.641
104.809
105.975
107.141
108.305
109.467
110.627
111.785
112.941
114.093
115.243
116.389
117.53
118.666
119.796
120.919
122.035
123.14
124.234
125.315
126.38
127.426
128.449
129.446
130.411
131.339
132.224
133.059
133.838
134.554
135.202
135.778
136.28
136.708
137.064
137.353
137.581
137.757
137.888
137.982
138.048
138.092
138.12
138.137
138.146
138.151
138.154
138.156
138.159
138.162
138.165
138.169
138.174
138.18
138.189
138.203
138.224
138.258
138.313
138.398
138.532
138.732
139.022
139.423
139.947
140.599
141.373
142.256
143.232
144.286
145.404
146.573
147.784
149.029
150.302
151.597
152.911
154.241
155.583
156.936
158.298
159.668
161.044
162.426
163.813
165.204
166.599
167.996
169.397
170.8
172.206
173.613
175.023
176.434
177.846
179.259
180.674
182.09
183.507
184.924
186.343
187.762
189.182
190.603
192.024
193.446
194.868
196.29
197.714
199.137
200.561
201.985
203.41
204.835
206.26
207.686
209.112
210.538
211.965
213.391
214.818
216.245
217.673
219.1
220.528
221.956
223.384
224.812
226.241
227.669
229.098
230.527
231.956
233.385
234.814
236.244
237.673
239.103
240.532
241.962
243.392
244.822
246.252
247.681
249.111
250.541
251.971
253.4
254.83
256.259
257.688
259.117
260.546
261.974
263.402
264.829
266.255
267.681
269.107
270.531
271.954
273.376
274.797
276.216
277.633
279.048
280.461
281.87
283.276
284.678
286.076
287.467
288.852
290.229
291.597
292.957
294.305
295.64
296.956
298.244
299.498
300.706
301.858
302.94
303.935
304.827
305.599
306.235
306.731
307.092
307.334
307.484
307.569
307.613
307.636
307.646
307.651
307.651
307.647
307.645
307.644
307.643
307.642
307.642
307.641
307.641
307.641
307.641
307.641
307.642
307.642
307.642
307.642
307.643
307.643
307.643
307.643
307.644
307.644
307.644
307.644
307.645
307.645
307.645
307.645
307.645
307.645
307.645
307.645
307.646
307.646
307.646
307.646
307.646
307.646
307.646
307.646
307.646
307.646
307.646
307.646
307.646
307.646
307.647
307.647
307.647
307.647
307.647
307.647
307.647
307.647
307.647
307.647
307.647
307.647
307.647
307.647
307.647
307.647
307.647
307.647
307.647
307.647
307.647
307.647
307.647
307.648
307.648
307.648
307.648
307.648
307.648
307.648
307.648
307.648
307.648
307.648
307.648
307.648
307.648
307.648
307.648
307.648
307.648
307.648
307.648
307.648
307.648
307.648
307.648
307.648
307.648
307.648
307.648
307.648
307.648
307.648
307.648
307.648
307.648
307.648
307.648
307.648
307.648
307.648
307.648
307.648
307.648
307.648
307.648
307.648
307.648
307.648
307.648
307.648
307.648
307.648
307.648
307.648
307.647
307.647
307.647
307.647
307.647
307.647
307.647
307.647
307.647
307.647
307.647
307.647
307.647
307.647
307.647
307.647
307.647
307.647
307.647
307.647
307.647
307.647
307.647
307.647
307.647
307.647
307.647
307.647
307.647
307.647
307.647
307.647
307.647
307.646
307.646
307.646
307.646
307.646
307.646
307.646
307.646
307.646
307.646
307.646
307.646
307.646
307.646
307.646
307.646
307.646
307.646
307.646
307.646
307.646
307.646
307.646
307.646
307.646
307.646
307.646
307.647
307.648
307.649
307.65
307.652
307.654
307.657
307.66
307.663
307.667
307.67
307.672
307.673
307.673
307.672
307.669
307.665
307.66
307.655
307.651
307.649
307.647
307.646
307.645
307.645
307.645
307.645
307.645
307.645
307.645
307.645
307.644
307.645
307.644
307.644
307.644
307.644
307.644
307.644
307.644
307.644
307.644
307.644
307.644
307.644
307.644
307.644
307.644
307.643
307.643
307.643
307.643
307.643
307.643
307.643
307.643
307.643
307.643
307.643
307.643
307.643
307.643
307.643
307.642
307.642
307.642
307.642
307.642
307.642
307.642
307.642
307.642
307.642
307.642
307.642
307.642
307.641
307.641
307.641
307.641
307.641
307.641
307.641
307.641
307.641
307.641
307.641
307.641
307.64
307.64
307.64
307.64
307.64
307.64
307.64
307.64
307.64
307.64
307.639
307.639
307.639
307.639
307.639
307.639
307.639
307.639
307.639
307.639
307.638
307.638
307.638
307.638
307.638
307.638
307.638
307.638
307.637
307.637
307.637
307.637
307.637
307.637
307.637
307.637
307.636
307.636
307.636
307.636
307.636
307.636
307.636
307.635
307.635
307.635
307.635
307.635
307.635
307.634
307.634
307.634
307.634
307.634
307.634
307.634
307.633
307.633
307.633
307.633
307.633
307.632
307.632
307.632
307.632
307.632
307.631
307.631
307.631
307.631
307.631
307.63
307.63
307.63
307.63
307.63
307.629
307.629
307.629
307.629
307.628
307.628
307.628
307.628
307.627
307.627
307.627
307.626
307.626
307.625
307.626
307.624
307.625
307.622
307.625
307.618
307.625
307.61
307.623
307.589
307.607
307.523
307.53
307.309
307.205
306.662
305.769
304.394
299.708
295.017
276.228
253.687
186.604
84.4675
16.0583
2.74269
0.449498
0.0733301
0.0119549
0.00194868
0.000317638
5.17758e-05
8.43958e-06
1.37567e-06
2.24236e-07
3.65487e-08
5.95732e-09
9.67978e-10
1.57062e-10
2.31062e-11
2.16487e-12
9.21618e-13
1.22846e-12
1.13926e-12
9.50868e-13
1.04689e-12
1.45944e-12
1.37501e-12
1.52726e-12
1.46001e-12
1.03873e-12
1.13988e-12
1.43902e-12
1.35213e-12
1.11341e-12
1.32922e-12
1.19088e-12
9.29233e-13
1.14629e-12
1.00121e-12
5.34114e-13
4.26337e-13
9.18486e-13
8.63414e-13
8.03711e-13
6.92637e-13
4.83897e-13
5.47783e-13
3.72672e-13
2.48949e-13
1.84611e-13
2.83144e-13
1.97549e-13
4.4297e-14
1.70047e-13
3.35467e-13
4.4597e-13
7.67309e-13
9.58357e-13
1.23323e-12
9.7951e-13
1.14869e-12
1.5343e-12
1.64522e-12
1.90702e-12
2.192e-12
2.46894e-12
2.13601e-12
2.14833e-12
1.89307e-12
1.73355e-12
1.80433e-12
1.49081e-12
1.50595e-12
1.74661e-12
1.93518e-12
1.82995e-12
2.17667e-12
2.33059e-12
2.37117e-12
2.76941e-12
3.04729e-12
3.2176e-12
3.50074e-12
3.7904e-12
3.73554e-12
3.89636e-12
4.18043e-12
4.35767e-12
4.68484e-12
4.9545e-12
5.04795e-12
5.01671e-12
5.26839e-12
5.00759e-12
4.91266e-12
5.04062e-12
5.06628e-12
)
;

boundaryField
{
    sides
    {
        type            calculated;
        value           nonuniform List<scalar> 2(5.06628e-12 7.30847e-13);
    }
    empty
    {
        type            empty;
    }
}


// ************************************************************************* //
