/*--------------------------------*- C++ -*----------------------------------*\
  =========                 |
  \\      /  F ield         | OpenFOAM: The Open Source CFD Toolbox
   \\    /   O peration     | Website:  https://openfoam.org
    \\  /    A nd           | Version:  13
     \\/     M anipulation  |
\*---------------------------------------------------------------------------*/
FoamFile
{
    format      ascii;
    class       volScalarField;
    location    "0.007";
    object      p;
}
// * * * * * * * * * * * * * * * * * * * * * * * * * * * * * * * * * * * * * //

dimensions      [1 -1 -2 0 0 0 0];

internalField   nonuniform List<scalar> 
1000
(
100000
100000
100000
100000
100000
100000
100000
100000
100000
100000
100000
100000
100000
100000
100000
100000
100000
100000
100000
100000
100000
100000
100000
100000
100000
100000
100000
100000
100000
100000
100000
100000
100000
100000
100000
100000
100000
100000
100000
100000
100000
100000
100000
100000
100000
100000
100000
100000
100000
100000
100000
100000
100000
100000
100000
100000
100000
100000
100000
100000
100000
100000
100000
100000
100000
100000
100000
100000
100000
100000
100000
100000
100000
100000
100000
100000
100000
100000
100000
100000
100000
100000
100000
100000
100000
100000
100000
100000
100000
100000
100000
100000
100000
100000
100000
100000
100000
100000
100000
100000
100000
100000
100000
100000
100000
100000
100000
100000
100000
100000
100000
100000
100000
100000
100000
100000
100000
100000
100000
100000
100000
100000
100000
100000
100000
100000
100000
100000
100000
100000
100000
100000
100000
100000
100000
100000
100000
100000
100000
100000
100000
100000
100000
100000
100000
100000
100000
100000
100000
100000
100000
100000
100000
100000
100000
100000
100000
100000
100000
100000
100000
100000
100000
100000
100000
100000
100000
100000
100000
100000
100000
100000
100000
100000
100000
100000
100000
100000
100000
100000
100000
100000
100000
100000
100000
100000
100000
100000
100000
100000
100000
100000
100000
100000
100000
100000
100000
100000
100000
100000
100000
100000
100000
100000
100000
100000
100000
99999.9
99999.9
99999.8
99999.6
99999.3
99998.9
99998.2
99997
99995.1
99992.2
99987.7
99980.9
99970.9
99956.6
99936.3
99908.5
99871.3
99822.9
99761.5
99685.4
99593.3
99484.2
99357.3
99212.4
99049.5
98868.8
98670.8
98456.3
98226.2
97981.3
97722.7
97451.4
97168.4
96874.8
96571.5
96259.4
95939.4
95612.2
95278.7
94939.5
94595.1
94246.3
93893.5
93537.2
93177.8
92815.7
92451.2
92084.8
91716.6
91347
90976.1
90604.2
90231.5
89858.2
89484.4
89110.3
88735.9
88361.5
87987.1
87612.9
87238.9
86865.2
86491.8
86119
85746.6
85374.9
85003.7
84633.3
84263.6
83894.6
83526.5
83159.2
82792.8
82427.2
82062.7
81699
81336.4
80974.8
80614.2
80254.6
79896.1
79538.7
79182.4
78827.2
78473.1
78120.1
77768.3
77417.7
77068.2
76719.9
76372.7
76026.8
75682.1
75338.6
74996.2
74655.2
74315.3
73976.7
73639.3
73303.2
72968.3
72634.7
72302.3
71971.3
71641.5
71313
70985.8
70659.9
70335.3
70012
69690.1
69369.5
69050.2
68732.3
68415.8
68100.8
67787.1
67474.8
67164
66854.7
66547
66240.7
65936.1
65633.1
65331.7
65032.2
64734.4
64438.6
64144.7
63853
63563.5
63276.4
62991.9
62710.3
62431.7
62156.7
61885.4
61618.5
61356.5
61100.1
60850
60607.4
60373.2
60148.8
59935.5
59734.8
59548.2
59376.9
59222.3
59085.2
58965.9
58864.4
58780.1
58711.7
58657.7
58616.3
58585.4
58563.1
58547.6
58537.2
58530.6
58526.6
58524.4
58523.2
58522.6
58522.1
58521.5
58521
58520.3
58519.6
58518.6
58517.3
58515.5
58512.7
58508.5
58501.7
58490.9
58473.8
58447.3
58407.3
58349.6
58270.1
58166.1
58037
57884.2
57710.4
57518.8
57312.7
57094.9
56868
56633.8
56394.1
56150.2
55903
55653.3
55401.9
55149.2
54895.6
54641.5
54387.2
54132.8
53878.6
53624.7
53371.2
53118.3
52865.9
52614.3
52363.4
52113.3
51864.1
51615.7
51368.3
51121.8
50876.2
50631.6
50388
50145.5
49903.9
49663.4
49423.9
49185.4
48948
48711.6
48476.3
48242
48008.8
47776.7
47545.6
47315.5
47086.5
46858.6
46631.7
46405.8
46181.1
45957.3
45734.6
45512.9
45292.3
45072.7
44854.1
44636.6
44420.1
44204.6
43990.1
43776.7
43564.2
43352.8
43142.3
42932.9
42724.4
42517
42310.5
42105
41900.5
41697
41494.5
41292.9
41092.3
40892.7
40694
40496.3
40299.5
40103.8
39908.9
39715.1
39522.1
39330.2
39139.2
38949.1
38760
38571.9
38384.7
38198.5
38013.3
37829
37645.7
37463.4
37282.1
37101.8
36922.5
36744.3
36567.1
36391
36216.1
36042.2
35869.6
35698.2
35528.2
35359.5
35192.3
35026.7
34862.8
34700.7
34540.5
34382.1
34226
34073
33923.8
33779.3
33640.6
33508.9
33385.6
33272.6
33171.7
33084.7
33013
32957.3
32916.8
32889.7
32872.9
32863.4
32858.4
32855.9
32854.7
32854.2
32854.2
32854.6
32854.9
32855.1
32855.2
32855.3
32855.4
32855.4
32855.4
32855.4
32855.4
32855.4
32855.3
32855.3
32855.3
32855.2
32855.2
32855.2
32855.1
32855.1
32855
32855
32855
32854.9
32854.9
32854.9
32854.8
32854.8
32854.8
32854.8
32854.8
32854.7
32854.7
32854.7
32854.7
32854.7
32854.6
32854.6
32854.6
32854.6
32854.6
32854.6
32854.5
32854.5
32854.5
32854.5
32854.5
32854.5
32854.4
32854.4
32854.4
32854.4
32854.4
32854.4
32854.4
32854.3
32854.3
32854.3
32854.3
32854.3
32854.3
32854.3
32854.3
32854.2
32854.2
32854.2
32854.2
32854.2
32854.2
32854.2
32854.2
32854.2
32854.1
32854.1
32854.1
32854.1
32854.1
32854.1
32854.1
32854.1
32854.1
32854
32854
32854
32854
32854
32854
32854
32854
32854
32854
32854
32853.9
32853.9
32853.9
32853.9
32853.9
32853.9
32853.9
32853.9
32853.9
32853.9
32853.9
32853.8
32853.8
32853.8
32853.8
32853.8
32853.8
32853.8
32853.8
32853.8
32853.8
32853.8
32853.7
32853.7
32853.7
32853.7
32853.7
32853.7
32853.7
32853.7
32853.7
32853.7
32853.7
32853.7
32853.6
32853.6
32853.6
32853.6
32853.6
32853.6
32853.6
32853.6
32853.6
32853.6
32853.6
32853.5
32853.5
32853.5
32853.5
32853.5
32853.5
32853.5
32853.5
32853.5
32853.5
32853.4
32853.4
32853.4
32853.4
32853.4
32853.4
32853.4
32853.4
32853.4
32853.4
32853.3
32853.3
32853.3
32853.3
32853.3
32853.3
32853.3
32853.3
32853.3
32853.3
32853.2
32853.2
32853.2
32853.2
32853.2
32853.2
32853.2
32853.2
32853.2
32853.2
32853.2
32853.2
32853.2
32853.2
32853.2
32853.3
32853.4
32853.5
32853.7
32854
32854.3
32854.7
32855.2
32855.7
32856.2
32856.6
32857
32857.2
32857.2
32857
32856.6
32856
32855.4
32854.7
32854.1
32853.6
32853.3
32853.2
32853.1
32853
32853
32853
32853
32852.9
32853
32852.9
32852.9
32852.9
32852.9
32852.9
32852.9
32852.9
32852.9
32852.9
32852.9
32852.9
32852.9
32852.8
32852.8
32852.8
32852.8
32852.8
32852.8
32852.8
32852.8
32852.8
32852.8
32852.8
32852.8
32852.7
32852.7
32852.7
32852.7
32852.7
32852.7
32852.7
32852.7
32852.7
32852.7
32852.7
32852.7
32852.6
32852.6
32852.6
32852.6
32852.6
32852.6
32852.6
32852.6
32852.6
32852.6
32852.5
32852.5
32852.5
32852.5
32852.5
32852.5
32852.5
32852.5
32852.5
32852.5
32852.4
32852.4
32852.4
32852.4
32852.4
32852.4
32852.4
32852.4
32852.4
32852.3
32852.3
32852.3
32852.3
32852.3
32852.3
32852.3
32852.3
32852.2
32852.2
32852.2
32852.2
32852.2
32852.2
32852.2
32852.2
32852.1
32852.1
32852.1
32852.1
32852.1
32852.1
32852.1
32852
32852
32852
32852
32852
32852
32852
32851.9
32851.9
32851.9
32851.9
32851.9
32851.9
32851.8
32851.8
32851.8
32851.8
32851.8
32851.8
32851.7
32851.7
32851.7
32851.7
32851.7
32851.6
32851.6
32851.6
32851.6
32851.6
32851.5
32851.5
32851.5
32851.5
32851.5
32851.4
32851.4
32851.4
32851.4
32851.3
32851.3
32851.3
32851.3
32851.2
32851.2
32851.2
32851.2
32851.1
32851.1
32851.1
32851.1
32851
32851
32851
32850.9
32850.9
32850.9
32850.8
32850.8
32850.8
32850.8
32850.6
32850.7
32850.4
32850.7
32850.1
32850.7
32849.5
32851
32847.7
32851.3
32842.4
32850.2
32826
32841.4
32775.5
32787.7
32604.5
32542.1
31941.8
31525.6
29501.7
27366.3
21533.6
14819.1
11432.8
10845.5
10746
10729.8
10727.1
10726.7
10726.6
10726.6
10726.6
10726.6
10726.6
10726.6
10726.6
10726.6
10726.6
10726.6
10726.6
10726.6
10726.6
10726.6
10726.6
10726.6
10726.6
10726.6
10726.6
10726.6
10726.6
10726.6
10726.6
10726.6
10726.6
10726.6
10726.6
10726.6
10726.6
10726.6
10726.6
10726.6
10726.6
10726.6
10726.6
10726.6
10726.6
10726.6
10726.6
10726.6
10726.6
10726.6
10726.6
10726.6
10726.6
10726.6
10726.6
10726.6
10726.6
10726.6
10726.6
10726.6
10726.6
10726.6
10726.6
10726.6
10726.6
10726.6
10726.6
10726.6
10726.6
10726.6
10726.6
10726.6
10726.6
10726.6
10726.6
10726.6
10726.6
10726.6
10726.6
10726.6
10726.6
10726.6
10726.6
10726.6
10726.6
10726.6
10726.6
10726.6
10726.6
10726.6
10726.6
10726.6
10726.6
10726.6
10726.6
10726.6
)
;

boundaryField
{
    sides
    {
        type            zeroGradient;
    }
    empty
    {
        type            empty;
    }
}


// ************************************************************************* //
