/*--------------------------------*- C++ -*----------------------------------*\
  =========                 |
  \\      /  F ield         | OpenFOAM: The Open Source CFD Toolbox
   \\    /   O peration     | Website:  https://openfoam.org
    \\  /    A nd           | Version:  13
     \\/     M anipulation  |
\*---------------------------------------------------------------------------*/
FoamFile
{
    format      ascii;
    class       surfaceScalarField;
    location    "0.007";
    object      phi;
}
// * * * * * * * * * * * * * * * * * * * * * * * * * * * * * * * * * * * * * //

dimensions      [1 0 -1 0 0 0 0];

internalField   nonuniform List<scalar> 
999
(
-2.95586e-12
-2.38742e-12
-1.59162e-12
-2.04636e-12
-2.16005e-12
-3.41061e-12
-3.97904e-12
-4.20641e-12
-4.66116e-12
-4.77485e-12
-5.91172e-12
-5.45697e-12
-5.22959e-12
-4.43379e-12
-4.43379e-12
-4.88853e-12
-4.77485e-12
-4.43379e-12
-3.75167e-12
-4.54747e-12
-4.20641e-12
-4.54747e-12
-5.79803e-12
-6.0254e-12
-5.79803e-12
-6.13909e-12
-5.79803e-12
-4.88853e-12
-5.45697e-12
-5.34328e-12
-5.45697e-12
-6.36646e-12
-5.79803e-12
-4.66116e-12
-4.88853e-12
-5.11591e-12
-5.22959e-12
-5.45697e-12
-5.57066e-12
-5.91172e-12
-6.13909e-12
-6.13909e-12
-5.57066e-12
-5.79803e-12
-5.91172e-12
-5.34328e-12
-5.45697e-12
-6.0254e-12
-5.91172e-12
-5.34328e-12
-5.00222e-12
-4.77485e-12
-4.54747e-12
-5.00222e-12
-4.3201e-12
-5.00222e-12
-5.45697e-12
-4.88853e-12
-4.09273e-12
-4.20641e-12
-4.20641e-12
-4.20641e-12
-4.66116e-12
-4.54747e-12
-4.3201e-12
-3.97904e-12
-3.63798e-12
-2.95586e-12
-2.38742e-12
-2.16005e-12
-2.16005e-12
-2.16005e-12
-2.6148e-12
-2.72848e-12
-2.95586e-12
-3.29692e-12
-3.52429e-12
-3.52429e-12
-3.75167e-12
-3.63798e-12
-3.75167e-12
-4.09273e-12
-3.86535e-12
-3.29692e-12
-3.06954e-12
-3.63798e-12
-2.27374e-12
-1.81899e-12
-9.09495e-13
-1.25056e-12
-1.02318e-12
-2.27374e-13
-3.41061e-13
-3.41061e-13
-1.36424e-12
-6.82121e-13
-1.36424e-12
-2.50111e-12
-1.7053e-12
-1.47793e-12
-9.09495e-13
-1.25056e-12
-3.41061e-13
-1.13687e-13
0
0
5.68434e-13
3.41061e-13
1.25056e-12
1.47793e-12
2.27374e-12
2.16005e-12
1.47793e-12
1.47793e-12
1.47793e-12
1.02318e-12
1.47793e-12
9.09495e-13
9.09495e-13
9.09495e-13
7.95808e-13
6.82121e-13
1.02318e-12
6.82121e-13
1.59162e-12
1.81899e-12
1.81899e-12
1.81899e-12
1.59162e-12
1.25056e-12
7.95808e-13
1.93268e-12
1.47793e-12
2.04636e-12
1.47793e-12
2.72848e-12
2.16005e-12
2.27374e-12
2.50111e-12
2.95586e-12
2.27374e-12
2.84217e-12
2.38742e-12
2.95586e-12
2.16005e-12
2.04636e-12
1.25056e-12
1.13687e-12
4.54747e-13
9.09495e-13
1.36424e-12
9.09495e-13
1.25056e-12
1.02318e-12
9.09495e-13
4.54747e-13
2.27374e-13
-5.68434e-13
-1.13687e-13
-4.54747e-13
-1.13687e-13
-4.54747e-13
-5.68434e-13
-1.36424e-12
-7.95808e-13
-1.36424e-12
-1.59162e-12
-1.81899e-12
-1.36424e-12
-1.93268e-12
-2.38742e-12
-3.41061e-12
-3.52429e-12
-3.41061e-12
-3.86535e-12
-3.63798e-12
-3.75167e-12
-3.41061e-12
-2.27374e-12
1.81899e-12
1.18234e-11
3.39924e-11
8.0604e-11
1.76556e-10
3.73461e-10
7.72388e-10
1.57911e-09
3.19778e-09
6.42808e-09
1.28372e-08
2.54764e-08
5.0252e-08
9.8516e-08
1.91937e-07
3.71593e-07
7.14777e-07
1.36587e-06
2.59254e-06
4.88703e-06
9.14741e-06
1.69984e-05
3.1354e-05
5.73938e-05
0.000104239
0.000187795
0.000335521
0.000594312
0.00104337
0.00181487
0.00312663
0.00533279
0.00900075
0.0150253
0.0247931
0.0404113
0.0650123
0.103135
0.161168
0.247796
0.374368
0.555046
0.806626
1.14794
1.59888
2.17921
2.90728
3.79899
4.86692
6.11995
7.56305
9.19747
11.0211
13.029
15.2137
17.5663
20.0763
22.7327
25.524
28.4387
31.4654
34.5931
37.8115
41.1108
44.4817
47.9157
51.4051
54.9425
58.5215
62.136
65.7807
69.4505
73.141
76.8483
80.5685
84.2984
88.0351
91.7757
95.518
99.2597
102.999
106.733
110.462
114.183
117.895
121.597
125.288
128.967
132.633
136.285
139.922
143.544
147.15
150.739
154.312
157.867
161.404
164.922
168.422
171.903
175.365
178.807
182.23
185.632
189.014
192.376
195.718
199.038
202.338
205.617
208.875
212.112
215.327
218.522
221.695
224.846
227.976
231.085
234.172
237.237
240.281
243.303
246.304
249.282
252.24
255.175
258.089
260.981
263.851
266.7
269.527
272.332
275.115
277.877
280.617
283.335
286.031
288.706
291.359
293.99
296.599
299.186
301.751
304.294
306.814
309.313
311.789
314.243
316.674
319.082
321.467
323.828
326.166
328.48
330.769
333.033
335.271
337.482
339.666
341.821
343.945
346.038
348.098
350.121
352.105
354.046
355.941
357.784
359.569
361.29
362.939
364.507
365.984
367.361
368.629
369.78
370.806
371.705
372.477
373.123
373.653
374.075
374.402
374.649
374.83
374.957
375.044
375.1
375.134
375.154
375.164
375.169
375.173
375.176
375.18
375.185
375.189
375.195
375.203
375.214
375.23
375.254
375.293
375.354
375.451
375.604
375.838
376.183
376.67
377.324
378.154
379.157
380.313
381.6
382.992
384.463
385.995
387.57
389.175
390.799
392.433
394.071
395.707
397.337
398.959
400.569
402.165
403.746
405.31
406.856
408.384
409.892
411.381
412.85
414.298
415.725
417.131
418.516
419.88
421.223
422.544
423.844
425.123
426.38
427.617
428.832
430.027
431.2
432.353
433.485
434.596
435.687
436.758
437.809
438.839
439.85
440.84
441.811
442.763
443.695
444.608
445.502
446.377
447.233
448.071
448.89
449.691
450.473
451.238
451.985
452.713
453.425
454.118
454.795
455.454
456.096
456.721
457.33
457.922
458.497
459.056
459.599
460.126
460.637
461.132
461.611
462.075
462.523
462.957
463.375
463.778
464.166
464.54
464.898
465.243
465.573
465.889
466.19
466.478
466.752
467.012
467.259
467.492
467.712
467.918
468.112
468.292
468.46
468.615
468.757
468.887
469.005
469.11
469.204
469.286
469.356
469.414
469.462
469.498
469.523
469.538
469.543
469.538
469.523
469.499
469.468
469.429
469.385
469.336
469.285
469.234
469.185
469.141
469.104
469.075
469.054
469.039
469.03
469.025
469.022
469.021
469.02
469.02
469.019
469.019
469.018
469.018
469.018
469.017
469.017
469.017
469.017
469.017
469.016
469.016
469.016
469.016
469.016
469.016
469.016
469.016
469.016
469.016
469.016
469.016
469.015
469.015
469.015
469.015
469.015
469.015
469.015
469.015
469.015
469.014
469.014
469.014
469.014
469.014
469.014
469.014
469.013
469.013
469.013
469.013
469.013
469.013
469.013
469.012
469.012
469.012
469.012
469.012
469.012
469.011
469.011
469.011
469.011
469.011
469.011
469.011
469.01
469.01
469.01
469.01
469.01
469.01
469.009
469.009
469.009
469.009
469.009
469.009
469.008
469.008
469.008
469.008
469.008
469.008
469.007
469.007
469.007
469.007
469.007
469.006
469.006
469.006
469.005
469.005
469.005
469.004
469.004
469.004
469.003
469.003
469.003
469.002
469.002
469.001
469.001
469.001
469
469
469
468.999
468.999
468.998
468.998
468.998
468.997
468.997
468.996
468.996
468.995
468.995
468.994
468.994
468.993
468.993
468.992
468.992
468.991
468.99
468.99
468.989
468.989
468.988
468.987
468.987
468.986
468.985
468.985
468.984
468.983
468.983
468.982
468.981
468.98
468.98
468.979
468.978
468.977
468.976
468.976
468.975
468.974
468.973
468.972
468.971
468.97
468.969
468.968
468.967
468.966
468.965
468.964
468.963
468.962
468.961
468.96
468.959
468.957
468.955
468.953
468.95
468.946
468.941
468.934
468.923
468.908
468.886
468.855
468.81
468.746
468.655
468.528
468.351
468.107
467.774
467.326
466.729
465.942
464.917
463.6
461.928
459.834
457.249
454.102
450.331
445.882
440.716
434.82
428.209
420.93
413.069
404.746
396.119
387.372
378.709
370.344
362.485
355.32
349
343.622
339.22
335.76
333.148
331.249
329.915
329.007
328.405
328.016
327.77
327.618
327.526
327.472
327.442
327.426
327.418
327.414
327.413
327.412
327.412
327.412
327.413
327.414
327.416
327.417
327.418
327.418
327.418
327.417
327.417
327.417
327.416
327.416
327.415
327.414
327.413
327.412
327.411
327.411
327.41
327.409
327.408
327.408
327.407
327.407
327.406
327.405
327.405
327.404
327.404
327.403
327.403
327.403
327.402
327.402
327.401
327.401
327.4
327.4
327.4
327.399
327.399
327.399
327.398
327.398
327.397
327.397
327.397
327.396
327.396
327.396
327.395
327.395
327.395
327.394
327.394
327.394
327.393
327.393
327.393
327.393
327.392
327.392
327.392
327.391
327.391
327.391
327.39
327.39
327.39
327.389
327.389
327.389
327.388
327.388
327.388
327.387
327.387
327.387
327.386
327.386
327.386
327.385
327.385
327.385
327.384
327.384
327.384
327.383
327.383
327.383
327.382
327.382
327.382
327.381
327.381
327.381
327.38
327.38
327.38
327.379
327.379
327.378
327.378
327.378
327.377
327.377
327.377
327.376
327.376
327.375
327.375
327.375
327.374
327.374
327.373
327.373
327.372
327.372
327.372
327.371
327.371
327.37
327.37
327.369
327.369
327.368
327.368
327.367
327.367
327.366
327.366
327.365
327.365
327.364
327.364
327.363
327.362
327.362
327.361
327.36
327.36
327.358
327.358
327.354
327.356
327.348
327.35
327.329
327.328
327.264
327.241
327.041
326.897
326.28
325.468
323.169
319.778
310.765
296.739
265.233
206.941
106.543
21.3719
3.77162
0.624519
0.102244
0.0166877
0.0027211
0.000443594
7.23096e-05
1.17868e-05
1.92128e-06
3.13173e-07
5.1047e-08
8.3203e-09
1.3552e-09
2.2014e-10
3.4845e-11
4.74643e-12
9.9476e-14
-5.96856e-13
-5.96856e-13
-4.9738e-13
-5.40012e-13
-6.11067e-13
-6.96332e-13
-7.10543e-13
-7.38964e-13
-6.11067e-13
-5.40012e-13
-6.25278e-13
-6.6791e-13
-6.82121e-13
-6.25278e-13
-5.96856e-13
-5.25802e-13
-4.9738e-13
-5.25802e-13
-3.69482e-13
-2.27374e-13
-3.41061e-13
-4.68958e-13
-4.26326e-13
-3.83693e-13
-2.98428e-13
-3.2685e-13
-2.55795e-13
-1.7053e-13
-1.56319e-13
-1.13687e-13
-9.9476e-14
-5.68434e-14
2.84217e-14
1.84741e-13
1.84741e-13
3.12639e-13
3.83693e-13
5.82645e-13
5.25802e-13
4.9738e-13
6.6791e-13
7.81597e-13
8.66862e-13
1.00897e-12
1.15108e-12
1.15108e-12
1.10845e-12
1.00897e-12
9.09495e-13
9.09495e-13
7.67386e-13
7.38964e-13
7.95808e-13
8.95284e-13
9.37916e-13
9.52127e-13
1.15108e-12
1.20792e-12
1.35003e-12
1.4353e-12
1.5774e-12
1.7053e-12
1.77636e-12
1.86162e-12
1.90425e-12
2.03215e-12
2.11742e-12
2.28795e-12
2.40163e-12
2.43006e-12
2.51532e-12
2.55795e-12
2.57216e-12
2.45848e-12
2.41585e-12
2.4869e-12
)
;

boundaryField
{
    sides
    {
        type            calculated;
        value           nonuniform List<scalar> 2(2.51532e-12 2.84217e-12);
    }
    empty
    {
        type            empty;
    }
}


// ************************************************************************* //
