/*--------------------------------*- C++ -*----------------------------------*\
  =========                 |
  \\      /  F ield         | OpenFOAM: The Open Source CFD Toolbox
   \\    /   O peration     | Website:  https://openfoam.org
    \\  /    A nd           | Version:  13
     \\/     M anipulation  |
\*---------------------------------------------------------------------------*/
FoamFile
{
    format      ascii;
    class       volScalarField;
    location    "0.007";
    object      rho;
}
// * * * * * * * * * * * * * * * * * * * * * * * * * * * * * * * * * * * * * //

dimensions      [1 -3 0 0 0 0 0];

internalField   nonuniform List<scalar> 
1000
(
0.995488
0.995488
0.995488
0.995488
0.995488
0.995488
0.995488
0.995488
0.995488
0.995488
0.995488
0.995488
0.995488
0.995488
0.995488
0.995488
0.995488
0.995488
0.995488
0.995488
0.995488
0.995488
0.995488
0.995488
0.995488
0.995488
0.995488
0.995488
0.995488
0.995488
0.995488
0.995488
0.995488
0.995488
0.995488
0.995488
0.995488
0.995488
0.995488
0.995488
0.995488
0.995488
0.995488
0.995488
0.995488
0.995488
0.995488
0.995488
0.995488
0.995488
0.995488
0.995488
0.995488
0.995488
0.995488
0.995488
0.995488
0.995488
0.995488
0.995488
0.995488
0.995488
0.995488
0.995488
0.995488
0.995488
0.995488
0.995488
0.995488
0.995488
0.995488
0.995488
0.995488
0.995488
0.995488
0.995488
0.995488
0.995488
0.995488
0.995488
0.995488
0.995488
0.995488
0.995488
0.995488
0.995488
0.995488
0.995488
0.995488
0.995488
0.995488
0.995488
0.995488
0.995488
0.995488
0.995488
0.995488
0.995488
0.995488
0.995488
0.995488
0.995488
0.995488
0.995488
0.995488
0.995488
0.995488
0.995488
0.995488
0.995488
0.995488
0.995488
0.995488
0.995488
0.995488
0.995488
0.995488
0.995488
0.995488
0.995488
0.995488
0.995488
0.995488
0.995488
0.995488
0.995488
0.995488
0.995488
0.995488
0.995488
0.995488
0.995488
0.995488
0.995488
0.995488
0.995488
0.995488
0.995488
0.995488
0.995488
0.995488
0.995488
0.995488
0.995488
0.995488
0.995488
0.995488
0.995488
0.995488
0.995488
0.995488
0.995488
0.995488
0.995488
0.995488
0.995488
0.995488
0.995488
0.995488
0.995488
0.995488
0.995488
0.995488
0.995488
0.995488
0.995488
0.995488
0.995488
0.995488
0.995488
0.995488
0.995488
0.995488
0.995488
0.995488
0.995488
0.995488
0.995488
0.995488
0.995488
0.995488
0.995488
0.995488
0.995488
0.995488
0.995488
0.995488
0.995488
0.995488
0.995488
0.995488
0.995488
0.995488
0.995488
0.995488
0.995488
0.995488
0.995488
0.995488
0.995488
0.995488
0.995488
0.995488
0.995488
0.995488
0.995487
0.995487
0.995487
0.995487
0.995486
0.995485
0.995483
0.99548
0.995474
0.995466
0.995453
0.995432
0.9954
0.995352
0.995281
0.995179
0.995035
0.994837
0.994573
0.994228
0.993791
0.99325
0.992594
0.991817
0.990913
0.989881
0.988719
0.98743
0.986018
0.984486
0.982841
0.98109
0.97924
0.977297
0.975269
0.973163
0.970985
0.968742
0.96644
0.964085
0.961681
0.959233
0.956747
0.954225
0.951671
0.94909
0.946483
0.943854
0.941205
0.938538
0.935855
0.933159
0.930451
0.927732
0.925004
0.922268
0.919526
0.916777
0.914024
0.911267
0.908507
0.905745
0.902981
0.900216
0.89745
0.894684
0.891919
0.889155
0.886391
0.88363
0.88087
0.878113
0.875358
0.872607
0.869858
0.867113
0.864371
0.861633
0.858899
0.856169
0.853443
0.850722
0.848005
0.845293
0.842586
0.839884
0.837187
0.834495
0.831809
0.829127
0.826452
0.823781
0.821117
0.818458
0.815805
0.813158
0.810516
0.807881
0.805252
0.802629
0.800012
0.797402
0.794797
0.7922
0.789608
0.787024
0.784445
0.781874
0.779309
0.776752
0.774201
0.771657
0.76912
0.766591
0.764069
0.761554
0.759047
0.756548
0.754057
0.751574
0.749099
0.746633
0.744176
0.741728
0.739289
0.73686
0.734442
0.732034
0.729638
0.727254
0.724884
0.722527
0.720185
0.71786
0.715553
0.713266
0.711001
0.708761
0.70655
0.704372
0.702231
0.700133
0.698085
0.696095
0.694173
0.692329
0.690574
0.688921
0.687382
0.685969
0.684693
0.68356
0.682574
0.681734
0.681036
0.68047
0.680023
0.679679
0.679423
0.679239
0.67911
0.679024
0.678969
0.678935
0.678917
0.678907
0.678901
0.678895
0.678889
0.678882
0.678874
0.678866
0.678854
0.678839
0.678818
0.678786
0.678737
0.678658
0.678533
0.678334
0.678027
0.677564
0.676894
0.675972
0.674765
0.673268
0.671496
0.669479
0.667257
0.664865
0.662339
0.659706
0.65699
0.654209
0.651379
0.648511
0.645615
0.642698
0.639767
0.636825
0.633877
0.630927
0.627976
0.625027
0.622082
0.619141
0.616207
0.61328
0.610361
0.60745
0.604549
0.601658
0.598776
0.595906
0.593046
0.590198
0.58736
0.584535
0.581721
0.578918
0.576128
0.57335
0.570583
0.567829
0.565087
0.562357
0.559639
0.556934
0.554241
0.55156
0.548891
0.546235
0.54359
0.540958
0.538338
0.535731
0.533135
0.530552
0.52798
0.525421
0.522873
0.520338
0.517814
0.515302
0.512803
0.510314
0.507838
0.505374
0.502921
0.500479
0.49805
0.495632
0.493225
0.49083
0.488446
0.486074
0.483713
0.481363
0.479025
0.476698
0.474382
0.472077
0.469784
0.467501
0.46523
0.46297
0.460721
0.458483
0.456256
0.45404
0.451836
0.449642
0.447459
0.445288
0.443128
0.440979
0.438841
0.436715
0.4346
0.432497
0.430405
0.428325
0.426258
0.424203
0.42216
0.42013
0.418114
0.416111
0.414123
0.41215
0.410193
0.408254
0.406332
0.404431
0.402551
0.400693
0.398855
0.397044
0.395269
0.393538
0.391862
0.390253
0.388725
0.387295
0.385984
0.384813
0.383804
0.382972
0.382326
0.381857
0.381542
0.381348
0.381237
0.381179
0.38115
0.381136
0.381131
0.38113
0.381134
0.381136
0.381137
0.381138
0.381139
0.381139
0.38114
0.38114
0.38114
0.381139
0.381139
0.381139
0.381138
0.381138
0.381138
0.381137
0.381137
0.381136
0.381136
0.381136
0.381135
0.381135
0.381134
0.381134
0.381134
0.381134
0.381133
0.381133
0.381133
0.381133
0.381132
0.381132
0.381132
0.381132
0.381131
0.381131
0.381131
0.381131
0.381131
0.38113
0.38113
0.38113
0.38113
0.38113
0.381129
0.381129
0.381129
0.381129
0.381129
0.381128
0.381128
0.381128
0.381128
0.381128
0.381127
0.381127
0.381127
0.381127
0.381127
0.381127
0.381126
0.381126
0.381126
0.381126
0.381126
0.381126
0.381125
0.381125
0.381125
0.381125
0.381125
0.381125
0.381124
0.381124
0.381124
0.381124
0.381124
0.381124
0.381123
0.381123
0.381123
0.381123
0.381122
0.381122
0.381122
0.381122
0.381121
0.381121
0.381121
0.38112
0.38112
0.38112
0.38112
0.381119
0.381119
0.381119
0.381118
0.381118
0.381118
0.381117
0.381117
0.381117
0.381117
0.381116
0.381116
0.381116
0.381115
0.381115
0.381114
0.381114
0.381114
0.381113
0.381113
0.381112
0.381112
0.381112
0.381111
0.381111
0.38111
0.38111
0.381109
0.381109
0.381108
0.381108
0.381107
0.381107
0.381106
0.381106
0.381105
0.381105
0.381104
0.381104
0.381103
0.381103
0.381102
0.381102
0.381101
0.3811
0.3811
0.381099
0.381098
0.381098
0.381097
0.381096
0.381096
0.381095
0.381094
0.381093
0.381093
0.381092
0.381091
0.38109
0.38109
0.381089
0.381088
0.381087
0.381086
0.381085
0.381084
0.381082
0.38108
0.381078
0.381074
0.381069
0.381061
0.381051
0.381036
0.381014
0.380983
0.380938
0.380875
0.380786
0.380661
0.380489
0.380254
0.379935
0.379509
0.378944
0.378205
0.37725
0.376032
0.374498
0.372593
0.37026
0.367445
0.3641
0.360189
0.355691
0.350606
0.34496
0.338807
0.332231
0.325345
0.318287
0.311216
0.304301
0.297712
0.291611
0.286133
0.281382
0.277409
0.274217
0.271753
0.269925
0.268617
0.267711
0.267102
0.266703
0.266447
0.266288
0.26619
0.266132
0.266099
0.266081
0.266071
0.266066
0.266065
0.266064
0.266064
0.266064
0.266065
0.266065
0.266067
0.266068
0.266069
0.266069
0.266069
0.266069
0.266069
0.266069
0.266068
0.266068
0.266067
0.266067
0.266066
0.266065
0.266065
0.266064
0.266063
0.266063
0.266062
0.266062
0.266062
0.266061
0.266061
0.26606
0.26606
0.26606
0.266059
0.266059
0.266059
0.266058
0.266058
0.266058
0.266057
0.266057
0.266057
0.266057
0.266056
0.266056
0.266056
0.266056
0.266055
0.266055
0.266055
0.266055
0.266055
0.266054
0.266054
0.266054
0.266054
0.266054
0.266053
0.266053
0.266053
0.266053
0.266053
0.266053
0.266052
0.266052
0.266052
0.266052
0.266052
0.266052
0.266051
0.266051
0.266051
0.266051
0.266051
0.266051
0.26605
0.26605
0.26605
0.26605
0.26605
0.26605
0.266049
0.266049
0.266049
0.266049
0.266049
0.266049
0.266049
0.266048
0.266048
0.266048
0.266048
0.266048
0.266048
0.266047
0.266047
0.266047
0.266047
0.266047
0.266047
0.266046
0.266046
0.266046
0.266046
0.266046
0.266046
0.266046
0.266045
0.266045
0.266045
0.266045
0.266045
0.266045
0.266044
0.266044
0.266044
0.266044
0.266044
0.266044
0.266043
0.266043
0.266043
0.266043
0.266043
0.266043
0.266042
0.266042
0.266042
0.266042
0.266042
0.266041
0.266041
0.266041
0.266041
0.266041
0.266041
0.26604
0.26604
0.26604
0.26604
0.266039
0.266039
0.266039
0.266039
0.266038
0.266039
0.266037
0.266038
0.266035
0.266039
0.266031
0.26604
0.266021
0.266042
0.26599
0.266035
0.265895
0.265985
0.265602
0.265678
0.264612
0.264268
0.260748
0.258434
0.246382
0.234149
0.198283
0.154262
0.130041
0.125407
0.124596
0.124462
0.12444
0.124436
0.124436
0.124436
0.124436
0.124436
0.124436
0.124436
0.124436
0.124436
0.124436
0.124436
0.124436
0.124436
0.124436
0.124436
0.124436
0.124436
0.124436
0.124436
0.124436
0.124436
0.124436
0.124436
0.124436
0.124436
0.124436
0.124436
0.124436
0.124436
0.124436
0.124436
0.124436
0.124436
0.124436
0.124436
0.124436
0.124436
0.124436
0.124436
0.124436
0.124436
0.124436
0.124436
0.124436
0.124436
0.124436
0.124436
0.124436
0.124436
0.124436
0.124436
0.124436
0.124436
0.124436
0.124436
0.124436
0.124436
0.124436
0.124436
0.124436
0.124436
0.124436
0.124436
0.124436
0.124436
0.124436
0.124436
0.124436
0.124436
0.124436
0.124436
0.124436
0.124436
0.124436
0.124436
0.124436
0.124436
0.124436
0.124436
0.124436
0.124436
0.124436
0.124436
0.124436
0.124436
0.124436
0.124436
0.124436
0.124436
)
;

boundaryField
{
    sides
    {
        type            calculated;
        value           nonuniform List<scalar> 2(0.124436 0.995488);
    }
    empty
    {
        type            empty;
    }
}


// ************************************************************************* //
