/*--------------------------------*- C++ -*----------------------------------*\
  =========                 |
  \\      /  F ield         | OpenFOAM: The Open Source CFD Toolbox
   \\    /   O peration     | Website:  https://openfoam.org
    \\  /    A nd           | Version:  13
     \\/     M anipulation  |
\*---------------------------------------------------------------------------*/
FoamFile
{
    format      ascii;
    class       volScalarField;
    location    "0.007";
    object      T;
}
// * * * * * * * * * * * * * * * * * * * * * * * * * * * * * * * * * * * * * //

dimensions      [0 0 0 1 0 0 0];

internalField   nonuniform List<scalar> 
1000
(
348.432
348.432
348.432
348.432
348.432
348.432
348.432
348.432
348.432
348.432
348.432
348.432
348.432
348.432
348.432
348.432
348.432
348.432
348.432
348.432
348.432
348.432
348.432
348.432
348.432
348.432
348.432
348.432
348.432
348.432
348.432
348.432
348.432
348.432
348.432
348.432
348.432
348.432
348.432
348.432
348.432
348.432
348.432
348.432
348.432
348.432
348.432
348.432
348.432
348.432
348.432
348.432
348.432
348.432
348.432
348.432
348.432
348.432
348.432
348.432
348.432
348.432
348.432
348.432
348.432
348.432
348.432
348.432
348.432
348.432
348.432
348.432
348.432
348.432
348.432
348.432
348.432
348.432
348.432
348.432
348.432
348.432
348.432
348.432
348.432
348.432
348.432
348.432
348.432
348.432
348.432
348.432
348.432
348.432
348.432
348.432
348.432
348.432
348.432
348.432
348.432
348.432
348.432
348.432
348.432
348.432
348.432
348.432
348.432
348.432
348.432
348.432
348.432
348.432
348.432
348.432
348.432
348.432
348.432
348.432
348.432
348.432
348.432
348.432
348.432
348.432
348.432
348.432
348.432
348.432
348.432
348.432
348.432
348.432
348.432
348.432
348.432
348.432
348.432
348.432
348.432
348.432
348.432
348.432
348.432
348.432
348.432
348.432
348.432
348.432
348.432
348.432
348.432
348.432
348.432
348.432
348.432
348.432
348.432
348.432
348.432
348.432
348.432
348.432
348.432
348.432
348.432
348.432
348.432
348.432
348.432
348.432
348.432
348.432
348.432
348.432
348.432
348.432
348.432
348.432
348.432
348.432
348.432
348.432
348.432
348.432
348.432
348.432
348.432
348.432
348.432
348.432
348.432
348.432
348.432
348.432
348.432
348.432
348.432
348.432
348.432
348.432
348.432
348.432
348.432
348.432
348.432
348.432
348.432
348.432
348.432
348.431
348.431
348.43
348.429
348.427
348.424
348.42
348.413
348.403
348.389
348.369
348.341
348.304
348.256
348.194
348.118
348.027
347.918
347.791
347.646
347.483
347.301
347.103
346.887
346.655
346.408
346.147
345.872
345.585
345.286
344.977
344.658
344.331
343.995
343.652
343.302
342.946
342.584
342.218
341.846
341.471
341.091
340.708
340.322
339.933
339.541
339.147
338.75
338.352
337.951
337.549
337.146
336.741
336.334
335.927
335.518
335.108
334.698
334.286
333.874
333.461
333.048
332.634
332.219
331.804
331.389
330.973
330.556
330.14
329.723
329.306
328.888
328.471
328.053
327.635
327.217
326.799
326.381
325.963
325.545
325.126
324.708
324.29
323.872
323.453
323.035
322.617
322.199
321.781
321.363
320.946
320.528
320.111
319.694
319.277
318.86
318.443
318.027
317.61
317.194
316.778
316.363
315.948
315.533
315.118
314.704
314.29
313.876
313.463
313.05
312.638
312.226
311.815
311.404
310.994
310.584
310.175
309.767
309.359
308.952
308.547
308.142
307.738
307.336
306.935
306.536
306.138
305.743
305.349
304.959
304.571
304.188
303.808
303.433
303.064
302.702
302.347
302.003
301.669
301.348
301.043
300.754
300.486
300.239
300.015
299.817
299.644
299.497
299.374
299.274
299.196
299.136
299.091
299.058
299.036
299.021
299.011
299.005
299.002
299
299
299
299
299
299
299
299
299
299
299
299
299
299
299
299
299
299
299
299
299
299
299
299
299
299
299
299
299
299
299
299
299
299
299
299
299
299
299
299
299
299
299
299
299
299
299
299
299
299
299
299
299
299
299
299
299
299
299
299
299
299
299
299
299
299
299
299
299
299
299
299
299
299
299
299
299
299
299
299
299
299
299
299
299
299
299
299
299
299
299
299
299
299
299
299
299
299
299
299
299
299
299
299
299
299
299
299
299
299
299
299
299
299
299
299
299
299
299
299
299
299
299
299
299
299
299
299
299
299
299
299
299
299
299
299
299
299
299
299
299
299
299
299
299
299
299
299
299
299
299
299
299
299.001
299.002
299.003
299.003
299.003
299.004
299.004
299.004
299.004
299.004
299.004
299.004
299.004
299.004
299.004
299.004
299.004
299.004
299.004
299.004
299.004
299.003
299.003
299.003
299.003
299.003
299.003
299.003
299.003
299.003
299.003
299.003
299.003
299.003
299.003
299.003
299.003
299.003
299.003
299.003
299.003
299.003
299.003
299.003
299.003
299.003
299.003
299.004
299.004
299.004
299.004
299.004
299.004
299.004
299.004
299.004
299.004
299.004
299.004
299.004
299.004
299.004
299.004
299.004
299.004
299.004
299.004
299.004
299.004
299.004
299.004
299.004
299.004
299.004
299.004
299.004
299.004
299.004
299.004
299.004
299.004
299.005
299.005
299.005
299.005
299.005
299.005
299.005
299.006
299.006
299.006
299.006
299.006
299.006
299.006
299.007
299.007
299.007
299.007
299.007
299.007
299.007
299.008
299.008
299.008
299.008
299.008
299.009
299.009
299.009
299.009
299.009
299.01
299.01
299.01
299.01
299.011
299.011
299.011
299.012
299.012
299.012
299.012
299.013
299.013
299.013
299.014
299.014
299.014
299.015
299.015
299.015
299.016
299.016
299.016
299.017
299.017
299.018
299.018
299.018
299.019
299.019
299.02
299.02
299.021
299.021
299.022
299.022
299.023
299.023
299.023
299.024
299.025
299.025
299.026
299.026
299.027
299.028
299.029
299.03
299.031
299.033
299.036
299.04
299.046
299.054
299.065
299.082
299.107
299.142
299.192
299.262
299.359
299.495
299.68
299.931
300.268
300.716
301.303
302.066
303.045
304.287
305.844
307.772
310.132
312.983
316.385
320.39
325.041
330.366
336.371
343.033
350.298
358.068
366.204
374.524
382.807
390.81
398.283
405
410.792
415.568
419.332
422.171
424.226
425.66
426.63
427.269
427.678
427.935
428.091
428.184
428.238
428.267
428.282
428.29
428.293
428.293
428.293
428.293
428.292
428.291
428.289
428.287
428.286
428.285
428.285
428.285
428.285
428.285
428.285
428.286
428.286
428.287
428.288
428.289
428.29
428.291
428.292
428.293
428.293
428.294
428.295
428.295
428.296
428.296
428.297
428.297
428.298
428.298
428.298
428.299
428.299
428.3
428.3
428.3
428.3
428.301
428.301
428.301
428.302
428.302
428.302
428.302
428.302
428.303
428.303
428.303
428.303
428.303
428.303
428.304
428.304
428.304
428.304
428.304
428.304
428.305
428.305
428.305
428.305
428.305
428.305
428.305
428.305
428.305
428.306
428.306
428.306
428.306
428.306
428.306
428.306
428.306
428.306
428.306
428.306
428.306
428.307
428.307
428.307
428.307
428.307
428.307
428.307
428.307
428.307
428.307
428.307
428.307
428.307
428.307
428.307
428.307
428.307
428.307
428.307
428.307
428.307
428.307
428.307
428.307
428.307
428.307
428.307
428.307
428.307
428.307
428.307
428.307
428.307
428.307
428.307
428.307
428.307
428.307
428.307
428.307
428.307
428.307
428.307
428.307
428.307
428.307
428.307
428.307
428.307
428.307
428.307
428.307
428.307
428.306
428.306
428.306
428.306
428.306
428.306
428.306
428.306
428.306
428.306
428.305
428.306
428.304
428.306
428.301
428.307
428.295
428.308
428.275
428.304
428.215
428.271
428.028
428.065
427.387
427.126
424.906
423.124
415.329
405.395
376.689
333.21
304.947
299.971
299.156
299.025
299.004
299.001
299
299
299
299
299
299
299
299
299
299
299
299
299
299
299
299
299
299
299
299
299
299
299
299
299
299
299
299
299
299
299
299
299
299
299
299
299
299
299
299
299
299
299
299
299
299
299
299
299
299
299
299
299
299
299
299
299
299
299
299
299
299
299
299
299
299
299
299
299
299
299
299
299
299
299
299
299
299
299
299
299
299
299
299
299
299
299
299
)
;

boundaryField
{
    sides
    {
        type            zeroGradient;
    }
    empty
    {
        type            empty;
    }
}


// ************************************************************************* //
