/*--------------------------------*- C++ -*----------------------------------*\
  =========                 |
  \\      /  F ield         | OpenFOAM: The Open Source CFD Toolbox
   \\    /   O peration     | Website:  https://openfoam.org
    \\  /    A nd           | Version:  13
     \\/     M anipulation  |
\*---------------------------------------------------------------------------*/
FoamFile
{
    format      ascii;
    class       volVectorField;
    location    "0.007";
    object      U;
}
// * * * * * * * * * * * * * * * * * * * * * * * * * * * * * * * * * * * * * //

dimensions      [0 1 -1 0 0 0 0];

internalField   nonuniform List<vector> 
1000
(
(-7.30847e-13 0 0)
(-7.0896e-13 0 0)
(-4.75075e-13 0 0)
(-4.31255e-13 0 0)
(-5.26253e-13 0 0)
(-7.23688e-13 0 0)
(-8.84395e-13 0 0)
(-1.08156e-12 0 0)
(-1.10368e-12 0 0)
(-1.1987e-12 0 0)
(-1.31564e-12 0 0)
(-1.38866e-12 0 0)
(-1.38875e-12 0 0)
(-1.24982e-12 0 0)
(-1.067e-12 0 0)
(-1.15487e-12 0 0)
(-1.24252e-12 0 0)
(-1.2498e-12 0 0)
(-9.86749e-13 0 0)
(-1.01598e-12 0 0)
(-1.11824e-12 0 0)
(-1.08179e-12 0 0)
(-1.26437e-12 0 0)
(-1.49832e-12 0 0)
(-1.44717e-12 0 0)
(-1.46178e-12 0 0)
(-1.57141e-12 0 0)
(-1.3741e-12 0 0)
(-1.27909e-12 0 0)
(-1.35212e-12 0 0)
(-1.30843e-12 0 0)
(-1.48369e-12 0 0)
(-1.53473e-12 0 0)
(-1.2864e-12 0 0)
(-1.16219e-12 0 0)
(-1.29368e-12 0 0)
(-1.24982e-12 0 0)
(-1.35222e-12 0 0)
(-1.42518e-12 0 0)
(-1.40325e-12 0 0)
(-1.51294e-12 0 0)
(-1.53491e-12 0 0)
(-1.4764e-12 0 0)
(-1.40337e-12 0 0)
(-1.52759e-12 0 0)
(-1.40328e-12 0 0)
(-1.35954e-12 0 0)
(-1.40325e-12 0 0)
(-1.52751e-12 0 0)
(-1.41789e-12 0 0)
(-1.24256e-12 0 0)
(-1.23522e-12 0 0)
(-1.17676e-12 0 0)
(-1.21332e-12 0 0)
(-1.18401e-12 0 0)
(-1.20609e-12 0 0)
(-1.33021e-12 0 0)
(-1.30085e-12 0 0)
(-1.10365e-12 0 0)
(-9.94064e-13 0 0)
(-1.05248e-12 0 0)
(-1.02325e-12 0 0)
(-1.09642e-12 0 0)
(-1.19862e-12 0 0)
(-1.0597e-12 0 0)
(-1.08903e-12 0 0)
(-9.64831e-13 0 0)
(-8.77031e-13 0 0)
(-7.38238e-13 0 0)
(-5.11662e-13 0 0)
(-5.4815e-13 0 0)
(-5.26329e-13 0 0)
(-6.13859e-13 0 0)
(-7.08946e-13 0 0)
(-7.08984e-13 0 0)
(-8.113e-13 0 0)
(-8.91652e-13 0 0)
(-9.1364e-13 0 0)
(-8.91731e-13 0 0)
(-9.86681e-13 0 0)
(-9.211e-13 0 0)
(-9.8664e-13 0 0)
(-1.0596e-12 0 0)
(-9.4288e-13 0 0)
(-6.57928e-13 0 0)
(-8.91679e-13 0 0)
(-7.67405e-13 0 0)
(-5.0439e-13 0 0)
(-4.16502e-13 0 0)
(-2.5575e-13 0 0)
(-2.85049e-13 0 0)
(-1.75438e-13 0 0)
(-1.09607e-13 0 0)
(-8.05311e-14 0 0)
(-2.19263e-13 0 0)
(-2.9962e-13 0 0)
(-2.48657e-13 0 0)
(-5.1152e-13 0 0)
(-5.69906e-13 0 0)
(-4.09313e-13 0 0)
(-2.92587e-13 0 0)
(-3.43427e-13 0 0)
(-2.33898e-13 0 0)
(-1.46553e-14 0 0)
(-7.2757e-15 0 0)
(-2.18713e-14 0 0)
(7.30552e-14 0 0)
(3.66146e-14 0 0)
(1.90032e-13 0 0)
(3.87327e-13 0 0)
(4.82373e-13 0 0)
(6.57671e-13 0 0)
(4.53127e-13 0 0)
(3.43783e-13 0 0)
(3.94673e-13 0 0)
(3.57999e-13 0 0)
(2.92424e-13 0 0)
(2.8502e-13 0 0)
(2.19229e-13 0 0)
(2.26532e-13 0 0)
(2.19263e-13 0 0)
(1.75515e-13 0 0)
(1.97365e-13 0 0)
(1.68069e-13 0 0)
(2.63283e-13 0 0)
(4.67589e-13 0 0)
(4.38602e-13 0 0)
(4.82359e-13 0 0)
(4.53006e-13 0 0)
(3.50842e-13 0 0)
(2.77859e-13 0 0)
(3.43545e-13 0 0)
(4.53161e-13 0 0)
(4.60415e-13 0 0)
(4.4586e-13 0 0)
(5.18944e-13 0 0)
(6.13845e-13 0 0)
(5.40869e-13 0 0)
(6.21372e-13 0 0)
(6.79749e-13 0 0)
(7.08889e-13 0 0)
(6.72506e-13 0 0)
(6.5775e-13 0 0)
(6.94407e-13 0 0)
(6.64927e-13 0 0)
(5.40922e-13 0 0)
(3.87544e-13 0 0)
(2.92332e-13 0 0)
(2.33783e-13 0 0)
(1.46411e-13 0 0)
(3.21385e-13 0 0)
(2.41216e-13 0 0)
(3.21607e-13 0 0)
(3.58011e-13 0 0)
(2.41205e-13 0 0)
(1.318e-13 0 0)
(1.38712e-13 0 0)
(-3.65418e-14 0 0)
(-9.49872e-14 0 0)
(-1.09634e-13 0 0)
(-4.37854e-14 0 0)
(-2.94308e-14 0 0)
(-1.02368e-13 0 0)
(-2.92185e-13 0 0)
(-2.77768e-13 0 0)
(-2.55792e-13 0 0)
(-3.14375e-13 0 0)
(-4.38439e-13 0 0)
(-4.5314e-13 0 0)
(-4.16738e-13 0 0)
(-5.33551e-13 0 0)
(-7.0887e-13 0 0)
(-8.55129e-13 0 0)
(-8.626e-13 0 0)
(-1.03759e-12 0 0)
(-9.13703e-13 0 0)
(-9.35608e-13 0 0)
(-9.50215e-13 0 0)
(-7.67548e-13 0 0)
(-1.97302e-13 0 0)
(1.51328e-12 0 0)
(5.45249e-12 0 0)
(1.38797e-11 0 0)
(3.06319e-11 0 0)
(6.68771e-11 0 0)
(1.38118e-10 0 0)
(2.85496e-10 0 0)
(5.78878e-10 0 0)
(1.16963e-09 0 0)
(2.34122e-09 0 0)
(4.66269e-09 0 0)
(9.22239e-09 0 0)
(1.81377e-08 0 0)
(3.54429e-08 0 0)
(6.88349e-08 0 0)
(1.32825e-07 0 0)
(2.5464e-07 0 0)
(4.84914e-07 0 0)
(9.17153e-07 0 0)
(1.72258e-06 0 0)
(3.21224e-06 0 0)
(5.94625e-06 0 0)
(1.09246e-05 0 0)
(1.99157e-05 0 0)
(3.6018e-05 0 0)
(6.46057e-05 0 0)
(0.000114903 0 0)
(0.000202571 0 0)
(0.000353888 0 0)
(0.000612414 0 0)
(0.00104941 0 0)
(0.00177983 0 0)
(0.00298626 0 0)
(0.00495391 0 0)
(0.00812007 0 0)
(0.0131413 0 0)
(0.0209802 0 0)
(0.0330093 0 0)
(0.0511246 0 0)
(0.0778489 0 0)
(0.116399 0 0)
(0.170681 0 0)
(0.245198 0 0)
(0.344852 0 0)
(0.474676 0 0)
(0.639531 0 0)
(0.843822 0 0)
(1.09126 0 0)
(1.38474 0 0)
(1.7262 0 0)
(2.1167 0 0)
(2.55644 0 0)
(3.04485 0 0)
(3.58075 0 0)
(4.16243 0 0)
(4.78782 0 0)
(5.4546 0 0)
(6.16028 0 0)
(6.90231 0 0)
(7.67812 0 0)
(8.48522 0 0)
(9.32119 0 0)
(10.1837 0 0)
(11.0707 0 0)
(11.98 0 0)
(12.9098 0 0)
(13.8584 0 0)
(14.8241 0 0)
(15.8056 0 0)
(16.8015 0 0)
(17.8105 0 0)
(18.8316 0 0)
(19.8637 0 0)
(20.9061 0 0)
(21.9577 0 0)
(23.0179 0 0)
(24.086 0 0)
(25.1614 0 0)
(26.2435 0 0)
(27.3318 0 0)
(28.4258 0 0)
(29.5251 0 0)
(30.6294 0 0)
(31.7382 0 0)
(32.8513 0 0)
(33.9683 0 0)
(35.089 0 0)
(36.2131 0 0)
(37.3404 0 0)
(38.4707 0 0)
(39.6039 0 0)
(40.7396 0 0)
(41.8778 0 0)
(43.0183 0 0)
(44.161 0 0)
(45.3057 0 0)
(46.4523 0 0)
(47.6008 0 0)
(48.7509 0 0)
(49.9026 0 0)
(51.0559 0 0)
(52.2106 0 0)
(53.3666 0 0)
(54.5239 0 0)
(55.6824 0 0)
(56.842 0 0)
(58.0027 0 0)
(59.1644 0 0)
(60.3271 0 0)
(61.4907 0 0)
(62.6551 0 0)
(63.8204 0 0)
(64.9864 0 0)
(66.1531 0 0)
(67.3205 0 0)
(68.4886 0 0)
(69.6572 0 0)
(70.8264 0 0)
(71.9961 0 0)
(73.1664 0 0)
(74.337 0 0)
(75.5081 0 0)
(76.6796 0 0)
(77.8514 0 0)
(79.0235 0 0)
(80.1959 0 0)
(81.3686 0 0)
(82.5415 0 0)
(83.7145 0 0)
(84.8877 0 0)
(86.0611 0 0)
(87.2344 0 0)
(88.4078 0 0)
(89.5812 0 0)
(90.7546 0 0)
(91.9278 0 0)
(93.1009 0 0)
(94.2738 0 0)
(95.4464 0 0)
(96.6187 0 0)
(97.7905 0 0)
(98.962 0 0)
(100.133 0 0)
(101.303 0 0)
(102.473 0 0)
(103.641 0 0)
(104.809 0 0)
(105.975 0 0)
(107.141 0 0)
(108.305 0 0)
(109.467 0 0)
(110.627 0 0)
(111.785 0 0)
(112.941 0 0)
(114.093 0 0)
(115.243 0 0)
(116.389 0 0)
(117.53 0 0)
(118.666 0 0)
(119.796 0 0)
(120.919 0 0)
(122.035 0 0)
(123.14 0 0)
(124.234 0 0)
(125.315 0 0)
(126.38 0 0)
(127.426 0 0)
(128.449 0 0)
(129.446 0 0)
(130.411 0 0)
(131.339 0 0)
(132.224 0 0)
(133.059 0 0)
(133.838 0 0)
(134.554 0 0)
(135.202 0 0)
(135.778 0 0)
(136.28 0 0)
(136.708 0 0)
(137.064 0 0)
(137.353 0 0)
(137.581 0 0)
(137.757 0 0)
(137.888 0 0)
(137.982 0 0)
(138.048 0 0)
(138.092 0 0)
(138.12 0 0)
(138.137 0 0)
(138.146 0 0)
(138.151 0 0)
(138.154 0 0)
(138.156 0 0)
(138.159 0 0)
(138.162 0 0)
(138.165 0 0)
(138.169 0 0)
(138.174 0 0)
(138.18 0 0)
(138.189 0 0)
(138.203 0 0)
(138.224 0 0)
(138.258 0 0)
(138.313 0 0)
(138.398 0 0)
(138.532 0 0)
(138.732 0 0)
(139.022 0 0)
(139.423 0 0)
(139.947 0 0)
(140.599 0 0)
(141.373 0 0)
(142.256 0 0)
(143.232 0 0)
(144.286 0 0)
(145.404 0 0)
(146.573 0 0)
(147.784 0 0)
(149.029 0 0)
(150.302 0 0)
(151.597 0 0)
(152.911 0 0)
(154.241 0 0)
(155.583 0 0)
(156.936 0 0)
(158.298 0 0)
(159.668 0 0)
(161.044 0 0)
(162.426 0 0)
(163.813 0 0)
(165.204 0 0)
(166.599 0 0)
(167.996 0 0)
(169.397 0 0)
(170.8 0 0)
(172.206 0 0)
(173.613 0 0)
(175.023 0 0)
(176.434 0 0)
(177.846 0 0)
(179.259 0 0)
(180.674 0 0)
(182.09 0 0)
(183.507 0 0)
(184.924 0 0)
(186.343 0 0)
(187.762 0 0)
(189.182 0 0)
(190.603 0 0)
(192.024 0 0)
(193.446 0 0)
(194.868 0 0)
(196.29 0 0)
(197.714 0 0)
(199.137 0 0)
(200.561 0 0)
(201.985 0 0)
(203.41 0 0)
(204.835 0 0)
(206.26 0 0)
(207.686 0 0)
(209.112 0 0)
(210.538 0 0)
(211.965 0 0)
(213.391 0 0)
(214.818 0 0)
(216.245 0 0)
(217.673 0 0)
(219.1 0 0)
(220.528 0 0)
(221.956 0 0)
(223.384 0 0)
(224.812 0 0)
(226.241 0 0)
(227.669 0 0)
(229.098 0 0)
(230.527 0 0)
(231.956 0 0)
(233.385 0 0)
(234.814 0 0)
(236.244 0 0)
(237.673 0 0)
(239.103 0 0)
(240.532 0 0)
(241.962 0 0)
(243.392 0 0)
(244.822 0 0)
(246.252 0 0)
(247.681 0 0)
(249.111 0 0)
(250.541 0 0)
(251.971 0 0)
(253.4 0 0)
(254.83 0 0)
(256.259 0 0)
(257.688 0 0)
(259.117 0 0)
(260.546 0 0)
(261.974 0 0)
(263.402 0 0)
(264.829 0 0)
(266.255 0 0)
(267.681 0 0)
(269.107 0 0)
(270.531 0 0)
(271.954 0 0)
(273.376 0 0)
(274.797 0 0)
(276.216 0 0)
(277.633 0 0)
(279.048 0 0)
(280.461 0 0)
(281.87 0 0)
(283.276 0 0)
(284.678 0 0)
(286.076 0 0)
(287.467 0 0)
(288.852 0 0)
(290.229 0 0)
(291.597 0 0)
(292.957 0 0)
(294.305 0 0)
(295.64 0 0)
(296.956 0 0)
(298.244 0 0)
(299.498 0 0)
(300.706 0 0)
(301.858 0 0)
(302.94 0 0)
(303.935 0 0)
(304.827 0 0)
(305.599 0 0)
(306.235 0 0)
(306.731 0 0)
(307.092 0 0)
(307.334 0 0)
(307.484 0 0)
(307.569 0 0)
(307.613 0 0)
(307.636 0 0)
(307.646 0 0)
(307.651 0 0)
(307.651 0 0)
(307.647 0 0)
(307.645 0 0)
(307.644 0 0)
(307.643 0 0)
(307.642 0 0)
(307.642 0 0)
(307.641 0 0)
(307.641 0 0)
(307.641 0 0)
(307.641 0 0)
(307.641 0 0)
(307.642 0 0)
(307.642 0 0)
(307.642 0 0)
(307.642 0 0)
(307.643 0 0)
(307.643 0 0)
(307.643 0 0)
(307.643 0 0)
(307.644 0 0)
(307.644 0 0)
(307.644 0 0)
(307.644 0 0)
(307.645 0 0)
(307.645 0 0)
(307.645 0 0)
(307.645 0 0)
(307.645 0 0)
(307.645 0 0)
(307.645 0 0)
(307.645 0 0)
(307.646 0 0)
(307.646 0 0)
(307.646 0 0)
(307.646 0 0)
(307.646 0 0)
(307.646 0 0)
(307.646 0 0)
(307.646 0 0)
(307.646 0 0)
(307.646 0 0)
(307.646 0 0)
(307.646 0 0)
(307.646 0 0)
(307.646 0 0)
(307.647 0 0)
(307.647 0 0)
(307.647 0 0)
(307.647 0 0)
(307.647 0 0)
(307.647 0 0)
(307.647 0 0)
(307.647 0 0)
(307.647 0 0)
(307.647 0 0)
(307.647 0 0)
(307.647 0 0)
(307.647 0 0)
(307.647 0 0)
(307.647 0 0)
(307.647 0 0)
(307.647 0 0)
(307.647 0 0)
(307.647 0 0)
(307.647 0 0)
(307.647 0 0)
(307.647 0 0)
(307.647 0 0)
(307.648 0 0)
(307.648 0 0)
(307.648 0 0)
(307.648 0 0)
(307.648 0 0)
(307.648 0 0)
(307.648 0 0)
(307.648 0 0)
(307.648 0 0)
(307.648 0 0)
(307.648 0 0)
(307.648 0 0)
(307.648 0 0)
(307.648 0 0)
(307.648 0 0)
(307.648 0 0)
(307.648 0 0)
(307.648 0 0)
(307.648 0 0)
(307.648 0 0)
(307.648 0 0)
(307.648 0 0)
(307.648 0 0)
(307.648 0 0)
(307.648 0 0)
(307.648 0 0)
(307.648 0 0)
(307.648 0 0)
(307.648 0 0)
(307.648 0 0)
(307.648 0 0)
(307.648 0 0)
(307.648 0 0)
(307.648 0 0)
(307.648 0 0)
(307.648 0 0)
(307.648 0 0)
(307.648 0 0)
(307.648 0 0)
(307.648 0 0)
(307.648 0 0)
(307.648 0 0)
(307.648 0 0)
(307.648 0 0)
(307.648 0 0)
(307.648 0 0)
(307.648 0 0)
(307.648 0 0)
(307.648 0 0)
(307.648 0 0)
(307.648 0 0)
(307.648 0 0)
(307.648 0 0)
(307.647 0 0)
(307.647 0 0)
(307.647 0 0)
(307.647 0 0)
(307.647 0 0)
(307.647 0 0)
(307.647 0 0)
(307.647 0 0)
(307.647 0 0)
(307.647 0 0)
(307.647 0 0)
(307.647 0 0)
(307.647 0 0)
(307.647 0 0)
(307.647 0 0)
(307.647 0 0)
(307.647 0 0)
(307.647 0 0)
(307.647 0 0)
(307.647 0 0)
(307.647 0 0)
(307.647 0 0)
(307.647 0 0)
(307.647 0 0)
(307.647 0 0)
(307.647 0 0)
(307.647 0 0)
(307.647 0 0)
(307.647 0 0)
(307.647 0 0)
(307.647 0 0)
(307.647 0 0)
(307.647 0 0)
(307.646 0 0)
(307.646 0 0)
(307.646 0 0)
(307.646 0 0)
(307.646 0 0)
(307.646 0 0)
(307.646 0 0)
(307.646 0 0)
(307.646 0 0)
(307.646 0 0)
(307.646 0 0)
(307.646 0 0)
(307.646 0 0)
(307.646 0 0)
(307.646 0 0)
(307.646 0 0)
(307.646 0 0)
(307.646 0 0)
(307.646 0 0)
(307.646 0 0)
(307.646 0 0)
(307.646 0 0)
(307.646 0 0)
(307.646 0 0)
(307.646 0 0)
(307.646 0 0)
(307.646 0 0)
(307.647 0 0)
(307.648 0 0)
(307.649 0 0)
(307.65 0 0)
(307.652 0 0)
(307.654 0 0)
(307.657 0 0)
(307.66 0 0)
(307.663 0 0)
(307.667 0 0)
(307.67 0 0)
(307.672 0 0)
(307.673 0 0)
(307.673 0 0)
(307.672 0 0)
(307.669 0 0)
(307.665 0 0)
(307.66 0 0)
(307.655 0 0)
(307.651 0 0)
(307.649 0 0)
(307.647 0 0)
(307.646 0 0)
(307.645 0 0)
(307.645 0 0)
(307.645 0 0)
(307.645 0 0)
(307.645 0 0)
(307.645 0 0)
(307.645 0 0)
(307.645 0 0)
(307.644 0 0)
(307.645 0 0)
(307.644 0 0)
(307.644 0 0)
(307.644 0 0)
(307.644 0 0)
(307.644 0 0)
(307.644 0 0)
(307.644 0 0)
(307.644 0 0)
(307.644 0 0)
(307.644 0 0)
(307.644 0 0)
(307.644 0 0)
(307.644 0 0)
(307.644 0 0)
(307.644 0 0)
(307.643 0 0)
(307.643 0 0)
(307.643 0 0)
(307.643 0 0)
(307.643 0 0)
(307.643 0 0)
(307.643 0 0)
(307.643 0 0)
(307.643 0 0)
(307.643 0 0)
(307.643 0 0)
(307.643 0 0)
(307.643 0 0)
(307.643 0 0)
(307.643 0 0)
(307.642 0 0)
(307.642 0 0)
(307.642 0 0)
(307.642 0 0)
(307.642 0 0)
(307.642 0 0)
(307.642 0 0)
(307.642 0 0)
(307.642 0 0)
(307.642 0 0)
(307.642 0 0)
(307.642 0 0)
(307.642 0 0)
(307.641 0 0)
(307.641 0 0)
(307.641 0 0)
(307.641 0 0)
(307.641 0 0)
(307.641 0 0)
(307.641 0 0)
(307.641 0 0)
(307.641 0 0)
(307.641 0 0)
(307.641 0 0)
(307.641 0 0)
(307.64 0 0)
(307.64 0 0)
(307.64 0 0)
(307.64 0 0)
(307.64 0 0)
(307.64 0 0)
(307.64 0 0)
(307.64 0 0)
(307.64 0 0)
(307.64 0 0)
(307.639 0 0)
(307.639 0 0)
(307.639 0 0)
(307.639 0 0)
(307.639 0 0)
(307.639 0 0)
(307.639 0 0)
(307.639 0 0)
(307.639 0 0)
(307.639 0 0)
(307.638 0 0)
(307.638 0 0)
(307.638 0 0)
(307.638 0 0)
(307.638 0 0)
(307.638 0 0)
(307.638 0 0)
(307.638 0 0)
(307.637 0 0)
(307.637 0 0)
(307.637 0 0)
(307.637 0 0)
(307.637 0 0)
(307.637 0 0)
(307.637 0 0)
(307.637 0 0)
(307.636 0 0)
(307.636 0 0)
(307.636 0 0)
(307.636 0 0)
(307.636 0 0)
(307.636 0 0)
(307.636 0 0)
(307.635 0 0)
(307.635 0 0)
(307.635 0 0)
(307.635 0 0)
(307.635 0 0)
(307.635 0 0)
(307.634 0 0)
(307.634 0 0)
(307.634 0 0)
(307.634 0 0)
(307.634 0 0)
(307.634 0 0)
(307.634 0 0)
(307.633 0 0)
(307.633 0 0)
(307.633 0 0)
(307.633 0 0)
(307.633 0 0)
(307.632 0 0)
(307.632 0 0)
(307.632 0 0)
(307.632 0 0)
(307.632 0 0)
(307.631 0 0)
(307.631 0 0)
(307.631 0 0)
(307.631 0 0)
(307.631 0 0)
(307.63 0 0)
(307.63 0 0)
(307.63 0 0)
(307.63 0 0)
(307.63 0 0)
(307.629 0 0)
(307.629 0 0)
(307.629 0 0)
(307.629 0 0)
(307.628 0 0)
(307.628 0 0)
(307.628 0 0)
(307.628 0 0)
(307.627 0 0)
(307.627 0 0)
(307.627 0 0)
(307.626 0 0)
(307.626 0 0)
(307.625 0 0)
(307.626 0 0)
(307.624 0 0)
(307.625 0 0)
(307.622 0 0)
(307.625 0 0)
(307.618 0 0)
(307.625 0 0)
(307.61 0 0)
(307.623 0 0)
(307.589 0 0)
(307.607 0 0)
(307.523 0 0)
(307.53 0 0)
(307.309 0 0)
(307.205 0 0)
(306.662 0 0)
(305.769 0 0)
(304.394 0 0)
(299.708 0 0)
(295.017 0 0)
(276.228 0 0)
(253.687 0 0)
(186.604 0 0)
(84.4675 0 0)
(16.0583 0 0)
(2.74269 0 0)
(0.449498 0 0)
(0.0733301 0 0)
(0.0119549 0 0)
(0.00194868 0 0)
(0.000317638 0 0)
(5.17758e-05 0 0)
(8.43958e-06 0 0)
(1.37567e-06 0 0)
(2.24236e-07 0 0)
(3.65487e-08 0 0)
(5.95732e-09 0 0)
(9.67978e-10 0 0)
(1.57062e-10 0 0)
(2.31062e-11 0 0)
(2.16487e-12 0 0)
(-9.21618e-13 0 0)
(-1.22846e-12 0 0)
(-1.13926e-12 0 0)
(-9.50868e-13 0 0)
(-1.04689e-12 0 0)
(-1.45944e-12 0 0)
(-1.37501e-12 0 0)
(-1.52726e-12 0 0)
(-1.46001e-12 0 0)
(-1.03873e-12 0 0)
(-1.13988e-12 0 0)
(-1.43902e-12 0 0)
(-1.35213e-12 0 0)
(-1.11341e-12 0 0)
(-1.32922e-12 0 0)
(-1.19088e-12 0 0)
(-9.29233e-13 0 0)
(-1.14629e-12 0 0)
(-1.00121e-12 0 0)
(-5.34114e-13 0 0)
(-4.26337e-13 0 0)
(-9.18486e-13 0 0)
(-8.63414e-13 0 0)
(-8.03711e-13 0 0)
(-6.92637e-13 0 0)
(-4.83897e-13 0 0)
(-5.47783e-13 0 0)
(-3.72672e-13 0 0)
(-2.48949e-13 0 0)
(-1.84611e-13 0 0)
(-2.83144e-13 0 0)
(-1.97549e-13 0 0)
(-4.4297e-14 0 0)
(1.70047e-13 0 0)
(3.35467e-13 0 0)
(4.4597e-13 0 0)
(7.67309e-13 0 0)
(9.58357e-13 0 0)
(1.23323e-12 0 0)
(9.7951e-13 0 0)
(1.14869e-12 0 0)
(1.5343e-12 0 0)
(1.64522e-12 0 0)
(1.90702e-12 0 0)
(2.192e-12 0 0)
(2.46894e-12 0 0)
(2.13601e-12 0 0)
(2.14833e-12 0 0)
(1.89307e-12 0 0)
(1.73355e-12 0 0)
(1.80433e-12 0 0)
(1.49081e-12 0 0)
(1.50595e-12 0 0)
(1.74661e-12 0 0)
(1.93518e-12 0 0)
(1.82995e-12 0 0)
(2.17667e-12 0 0)
(2.33059e-12 0 0)
(2.37117e-12 0 0)
(2.76941e-12 0 0)
(3.04729e-12 0 0)
(3.2176e-12 0 0)
(3.50074e-12 0 0)
(3.7904e-12 0 0)
(3.73554e-12 0 0)
(3.89636e-12 0 0)
(4.18043e-12 0 0)
(4.35767e-12 0 0)
(4.68484e-12 0 0)
(4.9545e-12 0 0)
(5.04795e-12 0 0)
(5.01671e-12 0 0)
(5.26839e-12 0 0)
(5.00759e-12 0 0)
(4.91266e-12 0 0)
(5.04062e-12 0 0)
(5.06628e-12 0 0)
)
;

boundaryField
{
    sides
    {
        type            zeroGradient;
    }
    empty
    {
        type            empty;
    }
}


// ************************************************************************* //
