/*--------------------------------*- C++ -*----------------------------------*\
  =========                 |
  \\      /  F ield         | OpenFOAM: The Open Source CFD Toolbox
   \\    /   O peration     | Website:  https://openfoam.org
    \\  /    A nd           | Version:  13
     \\/     M anipulation  |
\*---------------------------------------------------------------------------*/
FoamFile
{
    format      ascii;
    class       volScalarField;
    location    "0.004";
    object      mag(U);
}
// * * * * * * * * * * * * * * * * * * * * * * * * * * * * * * * * * * * * * //

dimensions      [0 1 -1 0 0 0 0];

internalField   nonuniform List<scalar> 
1000
(
1.38835e-13
1.02326e-13
7.30787e-14
2.19477e-14
7.30761e-15
3.64916e-14
2.0285e-17
6.56913e-14
1.46344e-14
7.30493e-15
2.92037e-14
7.34273e-15
3.6495e-14
1.98694e-17
6.56934e-14
1.46406e-14
1.19549e-17
1.03994e-17
1.46161e-14
2.92022e-14
1.40791e-17
7.31687e-15
2.92025e-14
7.31853e-15
6.62756e-18
3.46746e-26
6.62762e-18
7.31854e-15
2.92045e-14
7.34314e-15
3.64942e-14
2.02833e-17
6.56913e-14
1.46344e-14
7.30493e-15
2.92037e-14
7.34273e-15
3.6495e-14
1.98694e-17
6.56934e-14
1.46406e-14
1.19549e-17
1.03994e-17
1.46161e-14
2.92022e-14
1.40791e-17
7.31687e-15
2.92025e-14
7.31853e-15
6.62756e-18
3.46746e-26
6.62762e-18
7.31854e-15
2.92045e-14
7.34314e-15
3.64942e-14
2.02833e-17
6.56913e-14
1.46344e-14
7.30493e-15
2.92037e-14
7.34273e-15
3.6495e-14
1.98694e-17
6.56934e-14
1.46406e-14
1.19549e-17
1.03994e-17
1.46161e-14
2.92022e-14
1.40791e-17
7.31687e-15
2.92025e-14
7.31877e-15
5.11697e-14
1.68106e-13
2.3388e-13
2.85042e-13
4.82416e-13
4.89667e-13
4.02045e-13
5.48186e-13
5.91936e-13
5.11643e-13
4.53167e-13
5.70125e-13
5.04291e-13
5.62827e-13
7.382e-13
5.99255e-13
3.7278e-13
2.04667e-13
8.03899e-14
8.04126e-14
1.3889e-13
1.82707e-13
2.11973e-13
4.02006e-13
5.18854e-13
3.87384e-13
2.99787e-13
3.06899e-13
3.65466e-13
3.58105e-13
4.09272e-13
4.8975e-13
4.97016e-13
5.62745e-13
4.53166e-13
2.85042e-13
3.28938e-13
3.06984e-13
4.02002e-13
5.26161e-13
4.60467e-13
3.50895e-13
4.0195e-13
3.2892e-13
2.85076e-13
2.77723e-13
3.14295e-13
3.58116e-13
3.21568e-13
2.48528e-13
2.63042e-13
2.04741e-13
2.19245e-13
2.11967e-13
1.46238e-13
2.33872e-13
3.36181e-13
4.45825e-13
4.6777e-13
4.1664e-13
4.67747e-13
4.38533e-13
3.58191e-13
4.6777e-13
5.33486e-13
5.1892e-13
4.4591e-13
4.96948e-13
4.02027e-13
4.01978e-13
2.55883e-13
4.38516e-13
5.04248e-13
4.09297e-13
3.65491e-13
3.94559e-13
2.12078e-13
1.97342e-13
2.04637e-13
1.31616e-13
1.4618e-13
1.60668e-13
1.45614e-14
2.19382e-14
2.19111e-14
7.29575e-15
2.92275e-14
1.02242e-13
1.45988e-14
1.09561e-13
9.50297e-14
1.31561e-13
7.3121e-14
1.242e-13
8.04078e-14
2.19764e-14
7.30844e-14
1.53441e-13
1.24243e-13
1.02399e-13
2.19124e-13
7.313e-14
1.45765e-14
7.30614e-14
5.09791e-17
1.46172e-13
2.2643e-13
7.09603e-18
1.53456e-13
2.99625e-13
3.8008e-13
4.45816e-13
4.8234e-13
4.31212e-13
3.36288e-13
3.65438e-13
3.87359e-13
4.02e-13
3.80096e-13
4.3121e-13
5.33456e-13
4.1662e-13
2.99735e-13
3.72733e-13
2.99672e-13
2.99763e-13
4.53103e-13
4.75052e-13
4.31232e-13
5.11545e-13
3.80082e-13
3.14348e-13
3.5078e-13
3.28953e-13
3.58147e-13
4.67793e-13
5.26224e-13
5.04257e-13
4.16592e-13
2.8514e-13
3.58125e-13
4.01969e-13
4.23947e-13
4.31227e-13
3.72721e-13
4.38461e-13
1.75457e-13
8.76742e-14
1.24255e-13
2.55863e-13
3.28776e-13
7.31142e-14
7.30758e-14
6.58713e-14
4.38178e-14
1.0227e-13
2.26555e-13
2.04634e-13
1.97429e-13
1.5347e-13
2.11896e-13
3.50836e-13
5.40874e-13
6.06654e-13
7.23614e-13
9.13571e-13
8.69773e-13
7.82059e-13
8.84364e-13
1.02328e-12
1.1256e-12
1.19131e-12
1.07444e-12
9.28217e-13
6.72435e-13
5.04269e-13
2.92404e-13
3.58163e-13
5.55459e-13
6.94358e-13
7.74717e-13
6.43214e-13
5.77382e-13
6.35882e-13
6.79747e-13
8.55138e-13
1.00135e-12
1.20596e-12
1.38136e-12
1.27178e-12
1.17672e-12
1.05981e-12
1.00134e-12
1.06709e-12
1.16945e-12
1.07441e-12
9.86652e-13
7.30929e-13
5.77384e-13
5.99383e-13
6.21209e-13
6.28592e-13
5.99369e-13
5.92006e-13
5.40864e-13
6.35857e-13
5.70124e-13
5.7738e-13
5.70082e-13
4.3854e-13
2.92363e-13
1.90057e-13
6.57586e-14
7.31791e-15
5.11648e-14
1.46358e-14
8.76887e-14
1.45954e-14
1.0964e-13
1.02332e-13
1.4617e-13
1.97326e-13
1.5351e-13
2.11937e-13
1.45987e-14
4.38597e-13
1.19861e-12
2.25116e-12
5.04318e-12
1.12778e-11
2.50041e-11
5.68784e-11
1.29215e-10
2.93784e-10
6.63377e-10
1.48966e-09
3.32504e-09
7.36379e-09
1.61833e-08
3.52878e-08
7.63243e-08
1.63725e-07
3.4824e-07
7.34315e-07
1.53468e-06
3.17828e-06
6.52071e-06
1.32499e-05
2.66572e-05
5.3085e-05
0.0001046
0.000203861
0.000392826
0.000748049
0.00140703
0.00261258
0.00478571
0.00864183
0.0153698
0.0268956
0.0462487
0.078028
0.128917
0.208112
0.327422
0.500798
0.743176
1.06889
1.49011
2.01578
2.65121
3.39813
4.25526
5.21884
6.28339
7.44227
8.68826
10.0139
11.4118
12.8751
14.397
15.9715
17.593
19.2566
20.9577
22.6924
24.4571
26.2485
28.064
29.901
31.7574
33.6312
35.5207
37.4244
39.3409
41.269
43.2076
45.1559
47.1128
49.0777
51.0498
53.0286
55.0134
57.0037
58.999
60.999
63.0032
65.0111
67.0226
69.0372
71.0546
73.0746
75.0968
77.121
79.1468
81.174
83.2022
85.2313
87.2609
89.2906
91.3201
93.3489
95.3767
97.4029
99.4269
101.448
103.465
105.478
107.485
109.484
111.475
113.453
115.417
117.363
119.286
121.179
123.036
124.845
126.596
128.272
129.856
131.331
132.675
133.873
134.909
135.778
136.48
137.026
137.433
137.722
137.918
138.044
138.121
138.166
138.192
138.218
138.257
138.326
138.449
138.662
139.016
139.572
140.383
141.478
142.849
144.463
146.274
148.237
150.316
152.483
154.716
156.999
159.321
161.673
164.049
166.445
168.855
171.279
173.713
176.155
178.605
181.061
183.522
185.988
188.458
190.931
193.407
195.886
198.367
200.85
203.335
205.822
208.311
210.801
213.292
215.785
218.279
220.774
223.27
225.767
228.264
230.763
233.262
235.762
238.263
240.764
243.265
245.767
248.268
250.77
253.271
255.771
258.271
260.768
263.264
265.758
268.247
270.733
273.212
275.685
278.147
280.598
283.033
285.447
287.835
290.188
292.5
294.753
296.931
298.991
300.889
302.579
304.02
305.184
306.071
306.706
307.132
307.395
307.542
307.615
307.644
307.652
307.652
307.65
307.648
307.646
307.646
307.645
307.645
307.645
307.646
307.647
307.648
307.65
307.651
307.65
307.65
307.649
307.646
307.643
307.641
307.639
307.637
307.635
307.634
307.633
307.633
307.632
307.632
307.632
307.632
307.632
307.633
307.633
307.633
307.633
307.633
307.633
307.634
307.634
307.634
307.634
307.634
307.635
307.635
307.635
307.635
307.635
307.635
307.635
307.635
307.635
307.635
307.635
307.635
307.635
307.635
307.635
307.635
307.635
307.635
307.635
307.635
307.635
307.635
307.635
307.635
307.635
307.635
307.635
307.635
307.635
307.635
307.635
307.635
307.635
307.635
307.635
307.635
307.635
307.635
307.635
307.635
307.634
307.634
307.634
307.634
307.634
307.634
307.634
307.634
307.634
307.634
307.634
307.634
307.633
307.633
307.634
307.634
307.634
307.635
307.637
307.639
307.642
307.647
307.653
307.659
307.667
307.673
307.678
307.679
307.676
307.669
307.659
307.649
307.64
307.635
307.633
307.632
307.631
307.631
307.631
307.63
307.631
307.631
307.63
307.63
307.63
307.63
307.63
307.629
307.629
307.629
307.629
307.629
307.628
307.628
307.628
307.628
307.627
307.627
307.627
307.627
307.627
307.626
307.626
307.626
307.626
307.625
307.625
307.625
307.624
307.624
307.624
307.624
307.623
307.623
307.623
307.622
307.622
307.622
307.621
307.621
307.62
307.62
307.62
307.619
307.619
307.619
307.618
307.618
307.617
307.617
307.616
307.616
307.616
307.615
307.615
307.614
307.614
307.613
307.613
307.612
307.611
307.611
307.61
307.61
307.609
307.608
307.608
307.607
307.606
307.606
307.605
307.604
307.603
307.603
307.6
307.602
307.596
307.601
307.588
307.599
307.571
307.588
307.523
307.539
307.374
307.328
306.91
306.423
305.413
302.499
299.402
286.922
273.505
228.236
155.961
46.0327
8.28572
1.37552
0.224907
0.0366914
0.0059819
0.000975164
0.000158969
2.59148e-05
4.2246e-06
6.88689e-07
1.1227e-07
1.83019e-08
2.98385e-09
4.86327e-10
7.93528e-11
1.29309e-11
2.0691e-12
3.87221e-13
6.59887e-14
3.62836e-14
1.43522e-17
2.17987e-14
2.88537e-14
5.05583e-14
1.97688e-16
4.25588e-17
1.43993e-14
1.43791e-14
2.08986e-16
5.78977e-14
7.2616e-15
5.06615e-14
1.46902e-14
5.49458e-18
2.16717e-14
7.0738e-15
1.43407e-14
2.16752e-14
7.32766e-15
3.36515e-17
9.20253e-17
2.16746e-14
7.10727e-15
7.1102e-15
2.16325e-14
7.19648e-15
1.43881e-14
2.16325e-14
9.21685e-17
5.58578e-18
8.95783e-17
1.47548e-14
5.81184e-14
3.6363e-14
1.45959e-14
6.5312e-14
2.9253e-14
1.47688e-16
8.34499e-17
2.16774e-14
7.07377e-15
1.43407e-14
2.16752e-14
7.32766e-15
3.36515e-17
9.20253e-17
2.16746e-14
7.10727e-15
7.1102e-15
2.16325e-14
7.19648e-15
1.43881e-14
2.16325e-14
9.21579e-17
3.00768e-18
1.1958e-16
2.19518e-14
5.08315e-14
1.49138e-14
4.38967e-14
7.26742e-14
1.5122e-14
7.26138e-14
2.23734e-14
7.26384e-14
2.22877e-14
5.0932e-14
2.94388e-14
5.09025e-14
2.19061e-14
2.16833e-14
7.02127e-15
2.90594e-14
3.68016e-14
1.01812e-13
5.16177e-14
1.09201e-13
6.60843e-14
1.01954e-13
5.10363e-14
2.17243e-14
5.09039e-14
3.64813e-14
1.46079e-14
2.12355e-14
9.4203e-14
2.95656e-14
4.37226e-14
2.94151e-14
5.09549e-14
2.94428e-14
5.09576e-14
2.94399e-14
5.09026e-14
2.1904e-14
2.16802e-14
7.02648e-15
2.90929e-14
4.3966e-14
8.01179e-14
5.87052e-14
8.74612e-14
6.60084e-14
1.0195e-13
5.10344e-14
2.17237e-14
5.09038e-14
3.64813e-14
1.46079e-14
2.12355e-14
9.4203e-14
2.95656e-14
4.37226e-14
2.94151e-14
5.09549e-14
2.94428e-14
5.09576e-14
2.94399e-14
5.09025e-14
2.19033e-14
2.89877e-14
7.027e-15
1.44719e-14
3.64271e-14
2.89571e-14
3.67682e-14
2.21688e-14
2.90305e-14
9.53583e-14
2.04732e-13
1.60624e-13
2.33823e-13
5.18919e-13
6.72368e-13
7.24121e-13
9.13048e-13
1.14036e-12
1.3229e-12
1.72498e-12
1.87106e-12
2.06122e-12
2.19221e-12
1.90043e-12
1.79824e-12
1.78332e-12
1.69546e-12
1.58658e-12
1.50562e-12
1.41818e-12
1.54961e-12
1.73115e-12
1.49894e-12
1.60772e-12
1.67323e-12
1.52103e-12
1.65191e-12
1.84158e-12
1.99436e-12
1.70404e-12
1.60785e-12
1.62192e-12
1.55771e-12
1.7837e-12
1.89979e-12
1.87819e-12
1.80619e-12
2.05272e-12
1.87135e-12
1.83476e-12
1.96554e-12
1.98084e-12
1.81312e-12
1.55668e-12
1.23535e-12
9.80129e-13
1.05138e-12
9.14048e-13
1.03804e-12
1.21955e-12
1.19897e-12
1.13266e-12
1.08126e-12
9.79377e-13
7.53969e-13
8.10799e-13
6.57543e-13
5.26777e-13
3.64957e-13
1.46265e-13
6.55705e-14
2.25257e-13
2.29396e-14
1.38487e-13
2.93339e-14
1.60003e-13
1.02828e-13
2.41097e-13
1.97404e-13
4.38113e-14
7.20831e-14
7.38412e-14
2.04539e-13
3.7983e-13
4.76262e-13
7.01331e-13
6.43384e-13
6.72306e-13
5.48846e-13
6.42264e-13
8.69427e-13
8.85087e-13
9.86504e-13
1.06011e-12
1.20537e-12
1.39587e-12
1.28589e-12
1.22837e-12
1.44709e-12
1.58621e-12
1.6521e-12
1.88534e-12
1.78327e-12
1.62994e-12
1.50564e-12
1.44646e-12
1.23642e-12
1.38815e-12
1.22751e-12
1.0612e-12
1.18374e-12
1.21315e-12
1.10452e-12
1.38101e-12
1.61402e-12
1.4768e-12
1.49115e-12
1.54955e-12
1.44055e-12
1.69551e-12
1.92936e-12
2.01587e-12
1.74067e-12
1.84886e-12
1.75435e-12
1.84965e-12
2.17707e-12
2.06883e-12
)
;

boundaryField
{
    sides
    {
        type            calculated;
        value           nonuniform List<scalar> 2(2.06883e-12 1.38835e-13);
    }
    empty
    {
        type            empty;
    }
}


// ************************************************************************* //
