/*--------------------------------*- C++ -*----------------------------------*\
  =========                 |
  \\      /  F ield         | OpenFOAM: The Open Source CFD Toolbox
   \\    /   O peration     | Website:  https://openfoam.org
    \\  /    A nd           | Version:  13
     \\/     M anipulation  |
\*---------------------------------------------------------------------------*/
FoamFile
{
    format      ascii;
    class       volScalarField;
    location    "0.004";
    object      p;
}
// * * * * * * * * * * * * * * * * * * * * * * * * * * * * * * * * * * * * * //

dimensions      [1 -1 -2 0 0 0 0];

internalField   nonuniform List<scalar> 
1000
(
100000
100000
100000
100000
100000
100000
100000
100000
100000
100000
100000
100000
100000
100000
100000
100000
100000
100000
100000
100000
100000
100000
100000
100000
100000
100000
100000
100000
100000
100000
100000
100000
100000
100000
100000
100000
100000
100000
100000
100000
100000
100000
100000
100000
100000
100000
100000
100000
100000
100000
100000
100000
100000
100000
100000
100000
100000
100000
100000
100000
100000
100000
100000
100000
100000
100000
100000
100000
100000
100000
100000
100000
100000
100000
100000
100000
100000
100000
100000
100000
100000
100000
100000
100000
100000
100000
100000
100000
100000
100000
100000
100000
100000
100000
100000
100000
100000
100000
100000
100000
100000
100000
100000
100000
100000
100000
100000
100000
100000
100000
100000
100000
100000
100000
100000
100000
100000
100000
100000
100000
100000
100000
100000
100000
100000
100000
100000
100000
100000
100000
100000
100000
100000
100000
100000
100000
100000
100000
100000
100000
100000
100000
100000
100000
100000
100000
100000
100000
100000
100000
100000
100000
100000
100000
100000
100000
100000
100000
100000
100000
100000
100000
100000
100000
100000
100000
100000
100000
100000
100000
100000
100000
100000
100000
100000
100000
100000
100000
100000
100000
100000
100000
100000
100000
100000
100000
100000
100000
100000
100000
100000
100000
100000
100000
100000
100000
100000
100000
100000
100000
100000
100000
100000
100000
100000
100000
100000
100000
100000
100000
100000
100000
100000
100000
100000
100000
100000
100000
100000
100000
100000
100000
100000
100000
100000
100000
100000
100000
100000
100000
100000
100000
100000
100000
100000
100000
100000
100000
100000
100000
100000
100000
100000
100000
100000
100000
100000
100000
100000
100000
100000
100000
100000
100000
100000
100000
100000
100000
100000
100000
100000
100000
100000
100000
100000
100000
100000
100000
100000
100000
100000
100000
100000
100000
100000
100000
100000
100000
100000
100000
100000
100000
100000
100000
100000
100000
100000
100000
100000
100000
100000
100000
100000
100000
100000
100000
100000
100000
100000
100000
100000
100000
100000
100000
100000
100000
100000
100000
100000
100000
100000
100000
100000
100000
100000
100000
100000
100000
100000
100000
100000
100000
100000
100000
100000
99999.9
99999.9
99999.7
99999.5
99999
99998.2
99996.8
99994.3
99990
99982.7
99970.9
99951.9
99922.3
99877.8
99813.2
99722.9
99601.6
99445
99249.8
99014.4
98738.2
98422.1
98067.7
97677.5
97254.3
96800.9
96320.6
95816.3
95290.9
94747.1
94187.2
93613.6
93028.2
92432.9
91829.2
91218.5
90602.1
89981.1
89356.4
88729
88099.5
87468.6
86836.9
86204.9
85573
84941.7
84311.3
83682.1
83054.5
82428.5
81804.6
81182.8
80563.3
79946.4
79332.1
78720.6
78111.9
77506.3
76903.7
76304.4
75708.3
75115.5
74526.2
73940.4
73358.1
72779.4
72204.4
71633.2
71065.9
70502.4
69943
69387.7
68836.5
68289.8
67747.5
67209.9
66677.2
66149.7
65627.7
65111.6
64601.9
64099.4
63604.9
63119.4
62644.5
62181.8
61733.7
61302.8
60892.7
60507.1
60150.2
59826.3
59539.2
59291.5
59084.7
58917.8
58788.5
58692.3
58623.9
58577.7
58547.9
58529.8
58519.3
58512.7
58507.7
58499.9
58486.2
58461.7
58419.3
58348.7
58238.3
58077.6
57861.4
57591.7
57275.9
56923.7
56544.2
56145.1
55732.2
55310
54881.5
54449.1
54014.6
53579.1
53143.7
52709.1
52275.7
51844.1
51414.6
50987.3
50562.5
50140.4
49721
49304.5
48890.9
48480.3
48072.7
47668.1
47266.6
46868.1
46472.8
46080.5
45691.3
45305.2
44922.2
44542.2
44165.3
43791.4
43420.5
43052.7
42687.8
42325.9
41967
41611.1
41258.1
40908.1
40561
40216.9
39875.7
39537.4
39202.1
38869.8
38540.5
38214.2
37891
37571.1
37254.4
36941
36631.3
36325.3
36023.4
35725.9
35433.3
35146.4
34865.7
34592.6
34327.5
34073.7
33835.5
33617.6
33424.7
33261.2
33129.5
33029.6
32958.2
32910.5
32881
32864.4
32856.3
32853
32852.1
32852.1
32852.4
32852.6
32852.8
32852.9
32852.9
32853
32852.9
32852.8
32852.7
32852.4
32852.2
32852.1
32852.1
32852.1
32852.3
32852.6
32853
32853.3
32853.6
32853.8
32854
32854.1
32854.2
32854.2
32854.3
32854.3
32854.3
32854.2
32854.2
32854.1
32854.1
32854.1
32854
32854
32853.9
32853.9
32853.8
32853.8
32853.7
32853.7
32853.6
32853.6
32853.6
32853.5
32853.5
32853.5
32853.4
32853.4
32853.4
32853.3
32853.3
32853.3
32853.3
32853.2
32853.2
32853.2
32853.2
32853.1
32853.1
32853.1
32853
32853
32853
32853
32852.9
32852.9
32852.9
32852.9
32852.8
32852.8
32852.8
32852.8
32852.7
32852.7
32852.7
32852.7
32852.6
32852.6
32852.6
32852.6
32852.5
32852.5
32852.5
32852.5
32852.4
32852.4
32852.4
32852.4
32852.3
32852.3
32852.3
32852.3
32852.2
32852.2
32852.2
32852.2
32852.3
32852.4
32852.6
32852.9
32853.4
32854
32854.8
32855.8
32856.9
32857.8
32858.6
32858.8
32858.5
32857.6
32856.2
32854.6
32853.3
32852.5
32852
32851.9
32851.7
32851.8
32851.7
32851.6
32851.7
32851.7
32851.6
32851.6
32851.6
32851.5
32851.5
32851.5
32851.5
32851.5
32851.4
32851.4
32851.4
32851.4
32851.3
32851.3
32851.3
32851.2
32851.2
32851.2
32851.1
32851.1
32851.1
32851.1
32851
32851
32851
32850.9
32850.9
32850.9
32850.8
32850.8
32850.7
32850.7
32850.7
32850.6
32850.6
32850.6
32850.5
32850.5
32850.4
32850.4
32850.3
32850.3
32850.3
32850.2
32850.2
32850.1
32850.1
32850
32850
32849.9
32849.9
32849.8
32849.7
32849.7
32849.6
32849.6
32849.5
32849.4
32849.4
32849.3
32849.2
32849.2
32849.1
32849
32849
32848.9
32848.8
32848.7
32848.7
32848.5
32848.5
32848.3
32848.4
32847.9
32848.3
32847.2
32848.3
32845.8
32848.4
32841.9
32847.9
32830.3
32842.7
32794.4
32811.4
32679.4
32654
32244.6
31997.8
30591
29297.2
25010.1
19257.7
12832.8
11087.8
10786.1
10736.3
10728.2
10726.9
10726.7
10726.6
10726.6
10726.6
10726.6
10726.6
10726.6
10726.6
10726.6
10726.6
10726.6
10726.6
10726.6
10726.6
10726.6
10726.6
10726.6
10726.6
10726.6
10726.6
10726.6
10726.6
10726.6
10726.6
10726.6
10726.6
10726.6
10726.6
10726.6
10726.6
10726.6
10726.6
10726.6
10726.6
10726.6
10726.6
10726.6
10726.6
10726.6
10726.6
10726.6
10726.6
10726.6
10726.6
10726.6
10726.6
10726.6
10726.6
10726.6
10726.6
10726.6
10726.6
10726.6
10726.6
10726.6
10726.6
10726.6
10726.6
10726.6
10726.6
10726.6
10726.6
10726.6
10726.6
10726.6
10726.6
10726.6
10726.6
10726.6
10726.6
10726.6
10726.6
10726.6
10726.6
10726.6
10726.6
10726.6
10726.6
10726.6
10726.6
10726.6
10726.6
10726.6
10726.6
10726.6
10726.6
10726.6
10726.6
10726.6
10726.6
10726.6
10726.6
10726.6
10726.6
10726.6
10726.6
10726.6
10726.6
10726.6
10726.6
10726.6
10726.6
10726.6
10726.6
10726.6
10726.6
10726.6
10726.6
10726.6
10726.6
10726.6
10726.6
10726.6
10726.6
10726.6
10726.6
10726.6
10726.6
10726.6
10726.6
10726.6
10726.6
10726.6
10726.6
10726.6
10726.6
10726.6
10726.6
10726.6
10726.6
10726.6
10726.6
10726.6
10726.6
10726.6
10726.6
10726.6
10726.6
10726.6
10726.6
10726.6
10726.6
10726.6
10726.6
10726.6
10726.6
10726.6
10726.6
10726.6
10726.6
10726.6
10726.6
10726.6
10726.6
10726.6
10726.6
10726.6
10726.6
10726.6
10726.6
10726.6
10726.6
10726.6
10726.6
10726.6
10726.6
10726.6
10726.6
10726.6
10726.6
10726.6
10726.6
10726.6
10726.6
10726.6
10726.6
10726.6
10726.6
10726.6
10726.6
10726.6
10726.6
10726.6
10726.6
10726.6
10726.6
10726.6
10726.6
10726.6
10726.6
10726.6
10726.6
10726.6
10726.6
10726.6
10726.6
10726.6
10726.6
10726.6
10726.6
10726.6
10726.6
10726.6
10726.6
10726.6
10726.6
10726.6
10726.6
10726.6
10726.6
10726.6
10726.6
10726.6
10726.6
10726.6
10726.6
10726.6
10726.6
10726.6
10726.6
10726.6
10726.6
10726.6
10726.6
10726.6
10726.6
10726.6
10726.6
10726.6
10726.6
10726.6
10726.6
10726.6
10726.6
10726.6
10726.6
10726.6
10726.6
10726.6
10726.6
10726.6
10726.6
10726.6
10726.6
10726.6
10726.6
10726.6
10726.6
10726.6
10726.6
10726.6
10726.6
10726.6
10726.6
10726.6
10726.6
10726.6
10726.6
10726.6
10726.6
10726.6
10726.6
)
;

boundaryField
{
    sides
    {
        type            zeroGradient;
    }
    empty
    {
        type            empty;
    }
}


// ************************************************************************* //
