/*--------------------------------*- C++ -*----------------------------------*\
  =========                 |
  \\      /  F ield         | OpenFOAM: The Open Source CFD Toolbox
   \\    /   O peration     | Website:  https://openfoam.org
    \\  /    A nd           | Version:  13
     \\/     M anipulation  |
\*---------------------------------------------------------------------------*/
FoamFile
{
    format      ascii;
    class       surfaceScalarField;
    location    "0.004";
    object      phi;
}
// * * * * * * * * * * * * * * * * * * * * * * * * * * * * * * * * * * * * * //

dimensions      [1 0 -1 0 0 0 0];

internalField   nonuniform List<scalar> 
999
(
-4.54747e-13
-4.54747e-13
-2.27374e-13
0
1.13687e-13
1.13687e-13
-1.13687e-13
-1.13687e-13
0
1.13687e-13
1.13687e-13
1.13687e-13
1.13687e-13
-2.27374e-13
-2.27374e-13
0
0
0
2.27374e-13
1.13687e-13
0
-1.13687e-13
-1.13687e-13
0
0
0
0
1.13687e-13
1.13687e-13
1.13687e-13
1.13687e-13
-1.13687e-13
-1.13687e-13
0
1.13687e-13
1.13687e-13
1.13687e-13
1.13687e-13
-2.27374e-13
-2.27374e-13
0
0
0
2.27374e-13
1.13687e-13
0
-1.13687e-13
-1.13687e-13
0
0
0
0
1.13687e-13
1.13687e-13
1.13687e-13
1.13687e-13
-1.13687e-13
-1.13687e-13
0
1.13687e-13
1.13687e-13
1.13687e-13
1.13687e-13
-2.27374e-13
-2.27374e-13
0
0
0
2.27374e-13
1.13687e-13
0
-1.13687e-13
-1.13687e-13
0
-3.41061e-13
-9.09495e-13
-9.09495e-13
-1.36424e-12
-2.27374e-12
-1.47793e-12
-1.81899e-12
-2.50111e-12
-2.16005e-12
-1.81899e-12
-1.7053e-12
-2.38742e-12
-1.81899e-12
-2.84217e-12
-2.50111e-12
-2.04636e-12
-1.13687e-12
-3.41061e-13
-1.13687e-13
0
-9.09495e-13
-3.41061e-13
-1.13687e-12
-2.16005e-12
-1.81899e-12
-1.25056e-12
-7.95808e-13
-1.36424e-12
-1.25056e-12
-1.47793e-12
-1.81899e-12
-2.27374e-12
-1.81899e-12
-2.16005e-12
-1.36424e-12
-1.59162e-12
-9.09495e-13
-1.36424e-12
-1.93268e-12
-2.16005e-12
-1.47793e-12
-1.81899e-12
-1.02318e-12
-1.36424e-12
-1.13687e-12
-1.13687e-12
-1.36424e-12
-1.7053e-12
-7.95808e-13
-1.02318e-12
-1.02318e-12
-5.68434e-13
-9.09495e-13
-6.82121e-13
-6.82121e-13
-1.13687e-12
-1.59162e-12
-1.7053e-12
-2.04636e-12
-1.47793e-12
-2.04636e-12
-1.25056e-12
-1.7053e-12
-2.04636e-12
-2.50111e-12
-1.7053e-12
-2.16005e-12
-1.47793e-12
-1.93268e-12
-1.13687e-12
-1.36424e-12
-1.93268e-12
-1.81899e-12
-1.47793e-12
-1.47793e-12
-1.13687e-12
-5.68434e-13
-1.13687e-12
-2.27374e-13
-4.54747e-13
-4.54747e-13
-4.54747e-13
2.27374e-13
-2.27374e-13
2.27374e-13
-4.54747e-13
2.27374e-13
2.27374e-13
-2.27374e-13
-5.68434e-13
-3.41061e-13
-4.54747e-13
-2.27374e-13
-5.68434e-13
-1.13687e-13
-1.13687e-13
-3.41061e-13
-4.54747e-13
-4.54747e-13
-7.95808e-13
-5.68434e-13
0
2.27374e-13
2.27374e-13
-3.41061e-13
-7.95808e-13
-6.82121e-13
3.41061e-13
5.68434e-13
1.7053e-12
1.25056e-12
2.27374e-12
1.93268e-12
1.47793e-12
1.13687e-12
1.81899e-12
1.36424e-12
1.81899e-12
1.36424e-12
2.16005e-12
2.04636e-12
1.36424e-12
1.02318e-12
1.47793e-12
1.02318e-12
1.47793e-12
2.16005e-12
1.47793e-12
2.16005e-12
1.93268e-12
1.25056e-12
1.02318e-12
1.59162e-12
1.13687e-12
1.93268e-12
1.7053e-12
2.27374e-12
1.93268e-12
1.25056e-12
9.09495e-13
1.81899e-12
1.47793e-12
2.04636e-12
1.36424e-12
1.81899e-12
1.02318e-12
2.27374e-13
-6.82121e-13
-5.68434e-13
-1.36424e-12
-7.95808e-13
1.13687e-13
-3.41061e-13
0
0
-7.95808e-13
-1.13687e-12
-6.82121e-13
-9.09495e-13
-4.54747e-13
-1.36424e-12
-1.47793e-12
-2.50111e-12
-2.6148e-12
-3.41061e-12
-3.75167e-12
-3.29692e-12
-2.84217e-12
-4.09273e-12
-4.20641e-12
-4.77485e-12
-4.66116e-12
-4.09273e-12
-3.29692e-12
-2.16005e-12
-1.7053e-12
-1.02318e-12
-2.16005e-12
-2.27374e-12
-3.06954e-12
-2.95586e-12
-2.38742e-12
-2.38742e-12
-2.6148e-12
-2.84217e-12
-3.75167e-12
-4.09273e-12
-5.34328e-12
-5.34328e-12
-5.00222e-12
-4.43379e-12
-4.09273e-12
-3.75167e-12
-4.88853e-12
-4.43379e-12
-4.20641e-12
-2.95586e-12
-2.72848e-12
-1.93268e-12
-2.72848e-12
-2.38742e-12
-2.38742e-12
-2.50111e-12
-2.27374e-12
-2.38742e-12
-1.93268e-12
-2.50111e-12
-1.93268e-12
-2.16005e-12
-1.47793e-12
-1.02318e-12
-1.13687e-13
-3.41061e-13
2.27374e-13
-3.41061e-13
4.54747e-13
2.27374e-13
-2.27374e-13
-5.68434e-13
-4.54747e-13
-6.82121e-13
-5.68434e-13
-9.09495e-13
-2.27374e-13
4.54747e-13
3.06954e-12
6.36646e-12
1.28466e-11
2.91038e-11
6.50289e-11
1.46883e-10
3.33216e-10
7.58632e-10
1.71826e-09
3.86808e-09
8.65975e-09
1.92492e-08
4.24595e-08
9.29319e-08
2.01788e-07
4.34595e-07
9.28202e-07
1.96556e-06
4.12595e-06
8.58339e-06
1.76924e-05
3.61243e-05
7.30423e-05
0.000146212
0.000289659
0.000567716
0.00110039
0.00210838
0.00399142
0.00746195
0.0137677
0.0250526
0.0449243
0.0793122
0.137702
0.234795
0.392513
0.642003
1.0249
1.59274
2.40367
3.51648
4.98371
6.84591
9.12845
11.841
14.9793
18.527
22.4597
26.7468
31.3547
36.2485
41.3936
46.7569
52.307
58.0152
63.8555
69.8042
75.8404
81.9453
88.1024
94.2972
100.517
106.75
112.988
119.22
125.441
131.642
137.819
143.967
150.08
156.155
162.188
168.178
174.12
180.013
185.855
191.643
197.377
203.054
208.675
214.237
219.74
225.183
230.565
235.885
241.144
246.341
251.474
256.544
261.551
266.493
271.371
276.185
280.933
285.616
290.232
294.783
299.266
303.681
308.028
312.305
316.51
320.642
324.699
328.677
332.573
336.382
340.098
343.713
347.215
350.593
353.83
356.906
359.797
362.477
364.92
367.098
368.993
370.593
371.899
372.926
373.701
374.261
374.646
374.898
375.054
375.145
375.192
375.227
375.273
375.348
375.479
375.71
376.104
376.738
377.696
379.031
380.75
382.806
385.128
387.638
390.271
392.976
395.714
398.458
401.188
403.89
406.554
409.172
411.738
414.25
416.705
419.1
421.434
423.707
425.918
428.067
430.153
432.178
434.14
436.042
437.883
439.663
441.384
443.046
444.65
446.195
447.684
449.117
450.494
451.816
453.085
454.299
455.461
456.572
457.631
458.639
459.598
460.508
461.369
462.183
462.95
463.67
464.345
464.975
465.561
466.103
466.602
467.059
467.474
467.848
468.182
468.477
468.733
468.95
469.131
469.276
469.385
469.461
469.505
469.519
469.506
469.468
469.412
469.343
469.269
469.198
469.135
469.085
469.049
469.024
469.009
469
468.996
468.993
468.992
468.992
468.991
468.99
468.989
468.989
468.988
468.988
468.988
468.987
468.987
468.987
468.987
468.986
468.986
468.985
468.985
468.984
468.983
468.982
468.981
468.98
468.979
468.978
468.978
468.977
468.976
468.976
468.975
468.975
468.974
468.973
468.973
468.972
468.971
468.97
468.97
468.969
468.968
468.968
468.967
468.966
468.966
468.965
468.964
468.963
468.963
468.962
468.961
468.96
468.959
468.958
468.957
468.957
468.956
468.954
468.953
468.952
468.951
468.95
468.949
468.948
468.947
468.946
468.945
468.944
468.943
468.942
468.94
468.939
468.938
468.937
468.936
468.934
468.933
468.932
468.93
468.929
468.927
468.926
468.924
468.921
468.917
468.912
468.905
468.894
468.876
468.849
468.806
468.739
468.635
468.476
468.237
467.882
467.365
466.622
465.575
464.127
462.16
459.546
456.144
451.814
446.435
439.916
432.222
423.388
413.542
402.905
391.794
380.606
369.79
359.804
351.062
343.86
338.31
334.311
331.601
329.856
328.778
328.136
327.766
327.56
327.452
327.397
327.372
327.363
327.359
327.358
327.359
327.362
327.367
327.374
327.381
327.386
327.39
327.392
327.392
327.392
327.392
327.392
327.391
327.39
327.389
327.388
327.387
327.386
327.384
327.383
327.381
327.38
327.379
327.378
327.376
327.375
327.374
327.373
327.372
327.371
327.37
327.369
327.368
327.366
327.365
327.364
327.363
327.362
327.361
327.36
327.359
327.358
327.357
327.356
327.355
327.354
327.353
327.351
327.35
327.349
327.348
327.347
327.346
327.344
327.343
327.342
327.341
327.339
327.338
327.337
327.335
327.334
327.332
327.331
327.329
327.327
327.326
327.324
327.322
327.319
327.318
327.311
327.311
327.295
327.295
327.248
327.235
327.094
327.01
326.576
326.073
324.569
322.378
316.428
307.395
285.67
247.966
175.78
60.3584
11.2134
1.9006
0.312957
0.0511819
0.00835094
0.0013617
0.000221997
3.61902e-05
5.89972e-06
9.61768e-07
1.56787e-07
2.55592e-08
4.16671e-09
6.79265e-10
1.10745e-10
1.8062e-11
2.91323e-12
4.83169e-13
8.52651e-14
2.84217e-14
0
0
1.42109e-14
-2.84217e-14
1.42109e-14
0
0
0
0
-1.42109e-14
0
-1.42109e-14
1.42109e-14
0
-1.42109e-14
-1.42109e-14
0
1.42109e-14
1.42109e-14
0
0
-1.42109e-14
-1.42109e-14
0
1.42109e-14
1.42109e-14
0
1.42109e-14
1.42109e-14
0
0
0
-1.42109e-14
0
-1.42109e-14
4.26326e-14
0
0
0
-1.42109e-14
-1.42109e-14
0
1.42109e-14
1.42109e-14
0
0
-1.42109e-14
-1.42109e-14
0
1.42109e-14
1.42109e-14
0
1.42109e-14
1.42109e-14
0
0
0
-2.84217e-14
1.42109e-14
-1.42109e-14
-1.42109e-14
-5.68434e-14
-2.84217e-14
-2.84217e-14
-2.84217e-14
-1.42109e-14
-1.42109e-14
-2.84217e-14
-2.84217e-14
-2.84217e-14
1.42109e-14
4.26326e-14
-2.84217e-14
2.84217e-14
4.26326e-14
4.26326e-14
4.26326e-14
4.26326e-14
4.26326e-14
4.26326e-14
0
-2.84217e-14
-2.84217e-14
1.42109e-14
-1.42109e-14
-1.42109e-14
-7.10543e-14
-2.84217e-14
-2.84217e-14
-2.84217e-14
-2.84217e-14
-2.84217e-14
-2.84217e-14
-2.84217e-14
-2.84217e-14
1.42109e-14
4.26326e-14
-2.84217e-14
2.84217e-14
4.26326e-14
4.26326e-14
4.26326e-14
4.26326e-14
4.26326e-14
4.26326e-14
0
-2.84217e-14
-2.84217e-14
1.42109e-14
-1.42109e-14
-1.42109e-14
-7.10543e-14
-2.84217e-14
-2.84217e-14
-2.84217e-14
-2.84217e-14
-2.84217e-14
-2.84217e-14
-2.84217e-14
-2.84217e-14
1.42109e-14
4.26326e-14
-2.84217e-14
0
0
2.84217e-14
1.42109e-14
-1.42109e-14
-4.26326e-14
-8.52651e-14
-8.52651e-14
-9.9476e-14
-2.13163e-13
-2.98428e-13
-3.41061e-13
-3.83693e-13
-5.11591e-13
-6.11067e-13
-7.67386e-13
-9.23706e-13
-9.66338e-13
-1.08002e-12
-1.02318e-12
-8.95284e-13
-8.95284e-13
-8.52651e-13
-8.3844e-13
-7.67386e-13
-7.38964e-13
-7.10543e-13
-8.2423e-13
-7.95808e-13
-7.38964e-13
-8.66862e-13
-7.81597e-13
-7.81597e-13
-8.3844e-13
-9.80549e-13
-9.23706e-13
-8.10019e-13
-8.2423e-13
-7.53175e-13
-8.66862e-13
-9.09495e-13
-9.09495e-13
-9.23706e-13
-9.23706e-13
-9.80549e-13
-8.95284e-13
-9.52127e-13
-9.9476e-13
-9.80549e-13
-8.3844e-13
-7.10543e-13
-5.54223e-13
-5.11591e-13
-4.83169e-13
-4.54747e-13
-5.82645e-13
-5.96856e-13
-5.82645e-13
-5.54223e-13
-5.11591e-13
-4.40536e-13
-3.83693e-13
-3.41061e-13
-3.12639e-13
-2.13163e-13
-1.7053e-13
-2.84217e-14
7.10543e-14
5.68434e-14
1.42109e-14
7.10543e-14
-4.26326e-14
-5.68434e-14
-7.10543e-14
-9.9476e-14
-5.68434e-14
-4.26326e-14
0
4.26326e-14
1.56319e-13
1.84741e-13
3.2685e-13
3.2685e-13
3.69482e-13
3.2685e-13
2.70006e-13
3.69482e-13
4.12115e-13
4.68958e-13
4.9738e-13
5.25802e-13
6.39488e-13
6.6791e-13
6.25278e-13
6.53699e-13
7.81597e-13
7.67386e-13
8.95284e-13
8.95284e-13
8.3844e-13
7.67386e-13
7.53175e-13
6.53699e-13
6.6791e-13
6.82121e-13
5.25802e-13
5.68434e-13
5.82645e-13
5.82645e-13
6.25278e-13
6.6791e-13
7.81597e-13
7.24754e-13
7.81597e-13
7.24754e-13
7.95808e-13
9.09495e-13
9.52127e-13
9.37916e-13
8.3844e-13
9.09495e-13
8.81073e-13
1.02318e-12
1.06581e-12
)
;

boundaryField
{
    sides
    {
        type            calculated;
        value           nonuniform List<scalar> 2(1.0516e-12 4.54747e-13);
    }
    empty
    {
        type            empty;
    }
}


// ************************************************************************* //
