/*--------------------------------*- C++ -*----------------------------------*\
  =========                 |
  \\      /  F ield         | OpenFOAM: The Open Source CFD Toolbox
   \\    /   O peration     | Website:  https://openfoam.org
    \\  /    A nd           | Version:  13
     \\/     M anipulation  |
\*---------------------------------------------------------------------------*/
FoamFile
{
    format      ascii;
    class       volScalarField;
    location    "0.004";
    object      rho;
}
// * * * * * * * * * * * * * * * * * * * * * * * * * * * * * * * * * * * * * //

dimensions      [1 -3 0 0 0 0 0];

internalField   nonuniform List<scalar> 
1000
(
0.995488
0.995488
0.995488
0.995488
0.995488
0.995488
0.995488
0.995488
0.995488
0.995488
0.995488
0.995488
0.995488
0.995488
0.995488
0.995488
0.995488
0.995488
0.995488
0.995488
0.995488
0.995488
0.995488
0.995488
0.995488
0.995488
0.995488
0.995488
0.995488
0.995488
0.995488
0.995488
0.995488
0.995488
0.995488
0.995488
0.995488
0.995488
0.995488
0.995488
0.995488
0.995488
0.995488
0.995488
0.995488
0.995488
0.995488
0.995488
0.995488
0.995488
0.995488
0.995488
0.995488
0.995488
0.995488
0.995488
0.995488
0.995488
0.995488
0.995488
0.995488
0.995488
0.995488
0.995488
0.995488
0.995488
0.995488
0.995488
0.995488
0.995488
0.995488
0.995488
0.995488
0.995488
0.995488
0.995488
0.995488
0.995488
0.995488
0.995488
0.995488
0.995488
0.995488
0.995488
0.995488
0.995488
0.995488
0.995488
0.995488
0.995488
0.995488
0.995488
0.995488
0.995488
0.995488
0.995488
0.995488
0.995488
0.995488
0.995488
0.995488
0.995488
0.995488
0.995488
0.995488
0.995488
0.995488
0.995488
0.995488
0.995488
0.995488
0.995488
0.995488
0.995488
0.995488
0.995488
0.995488
0.995488
0.995488
0.995488
0.995488
0.995488
0.995488
0.995488
0.995488
0.995488
0.995488
0.995488
0.995488
0.995488
0.995488
0.995488
0.995488
0.995488
0.995488
0.995488
0.995488
0.995488
0.995488
0.995488
0.995488
0.995488
0.995488
0.995488
0.995488
0.995488
0.995488
0.995488
0.995488
0.995488
0.995488
0.995488
0.995488
0.995488
0.995488
0.995488
0.995488
0.995488
0.995488
0.995488
0.995488
0.995488
0.995488
0.995488
0.995488
0.995488
0.995488
0.995488
0.995488
0.995488
0.995488
0.995488
0.995488
0.995488
0.995488
0.995488
0.995488
0.995488
0.995488
0.995488
0.995488
0.995488
0.995488
0.995488
0.995488
0.995488
0.995488
0.995488
0.995488
0.995488
0.995488
0.995488
0.995488
0.995488
0.995488
0.995488
0.995488
0.995488
0.995488
0.995488
0.995488
0.995488
0.995488
0.995488
0.995488
0.995488
0.995488
0.995488
0.995488
0.995488
0.995488
0.995488
0.995488
0.995488
0.995488
0.995488
0.995488
0.995488
0.995488
0.995488
0.995488
0.995488
0.995488
0.995488
0.995488
0.995488
0.995488
0.995488
0.995488
0.995488
0.995488
0.995488
0.995488
0.995488
0.995488
0.995488
0.995488
0.995488
0.995488
0.995488
0.995488
0.995488
0.995488
0.995488
0.995488
0.995488
0.995488
0.995488
0.995488
0.995488
0.995488
0.995488
0.995488
0.995488
0.995488
0.995488
0.995488
0.995488
0.995488
0.995488
0.995488
0.995488
0.995488
0.995488
0.995488
0.995488
0.995488
0.995488
0.995488
0.995488
0.995488
0.995488
0.995488
0.995488
0.995488
0.995488
0.995488
0.995488
0.995488
0.995488
0.995488
0.995488
0.995488
0.995488
0.995488
0.995488
0.995488
0.995488
0.995488
0.995488
0.995488
0.995488
0.995488
0.995488
0.995488
0.995488
0.995488
0.995488
0.995488
0.995488
0.995488
0.995488
0.995488
0.995488
0.995488
0.995488
0.995488
0.995488
0.995488
0.995488
0.995488
0.995488
0.995488
0.995488
0.995488
0.995488
0.995488
0.995488
0.995488
0.995488
0.995488
0.995488
0.995488
0.995487
0.995487
0.995487
0.995487
0.995486
0.995484
0.995481
0.995475
0.995465
0.995447
0.995416
0.995365
0.995281
0.995145
0.994935
0.994619
0.994159
0.993516
0.992653
0.991538
0.990147
0.988469
0.986498
0.984241
0.981708
0.978916
0.975883
0.972631
0.969181
0.965552
0.961767
0.957841
0.953794
0.94964
0.945393
0.941066
0.936671
0.932216
0.92771
0.923162
0.918579
0.913965
0.909327
0.90467
0.899996
0.895311
0.890617
0.885917
0.881214
0.876511
0.871808
0.867108
0.862413
0.857724
0.853043
0.84837
0.843707
0.839055
0.834415
0.829787
0.825172
0.820572
0.815987
0.811417
0.806863
0.802326
0.797806
0.793305
0.788821
0.784358
0.779914
0.775491
0.771089
0.766709
0.762353
0.758022
0.753716
0.749438
0.745189
0.740972
0.736789
0.732645
0.728543
0.724489
0.720491
0.716558
0.712701
0.708936
0.705282
0.701762
0.698404
0.695241
0.692309
0.689643
0.687276
0.685232
0.683523
0.682143
0.681073
0.680276
0.67971
0.679326
0.679078
0.678927
0.678842
0.678786
0.678728
0.678637
0.678478
0.678194
0.677702
0.676884
0.675603
0.673739
0.671231
0.668102
0.664439
0.660352
0.65595
0.65132
0.646531
0.641632
0.636662
0.631646
0.626605
0.621553
0.616502
0.61146
0.606433
0.601426
0.596443
0.591486
0.586559
0.581662
0.576797
0.571965
0.567167
0.562403
0.557675
0.552981
0.548323
0.543701
0.539115
0.534564
0.530049
0.52557
0.521127
0.516719
0.512346
0.508009
0.503707
0.499439
0.495207
0.491009
0.486845
0.482716
0.478622
0.474561
0.470535
0.466542
0.462584
0.45866
0.45477
0.450915
0.447095
0.44331
0.439561
0.435849
0.432175
0.42854
0.424947
0.421398
0.417895
0.414444
0.41105
0.407722
0.404466
0.401297
0.398221
0.395277
0.392514
0.389986
0.387748
0.385851
0.384325
0.383165
0.382337
0.381783
0.381441
0.381249
0.381155
0.381117
0.381106
0.381106
0.381108
0.38111
0.381111
0.381111
0.381112
0.381111
0.381111
0.38111
0.381109
0.381106
0.381105
0.381103
0.381103
0.381103
0.381104
0.381106
0.381109
0.381112
0.381114
0.381115
0.381116
0.381117
0.381118
0.381118
0.381118
0.381118
0.381117
0.381116
0.381116
0.381115
0.381114
0.381114
0.381113
0.381112
0.381111
0.38111
0.381109
0.381109
0.381108
0.381107
0.381106
0.381106
0.381105
0.381104
0.381103
0.381103
0.381102
0.381101
0.381101
0.3811
0.381099
0.381098
0.381097
0.381097
0.381096
0.381095
0.381094
0.381093
0.381092
0.381092
0.381091
0.38109
0.381089
0.381088
0.381087
0.381086
0.381086
0.381085
0.381084
0.381083
0.381082
0.381081
0.38108
0.381079
0.381078
0.381077
0.381075
0.381074
0.381073
0.381071
0.381068
0.381065
0.38106
0.381053
0.381041
0.381022
0.380993
0.380948
0.380877
0.38077
0.380606
0.380363
0.380005
0.37949
0.378757
0.377737
0.376342
0.374473
0.372019
0.368867
0.364913
0.360069
0.354285
0.347562
0.339967
0.331642
0.322807
0.31375
0.304813
0.296364
0.288756
0.282278
0.2771
0.273229
0.270517
0.268722
0.267589
0.266901
0.266498
0.266269
0.266146
0.266082
0.266051
0.266038
0.266034
0.266033
0.266033
0.266035
0.266038
0.266043
0.266049
0.266055
0.266058
0.266061
0.266062
0.266062
0.266062
0.266062
0.266062
0.266062
0.266061
0.26606
0.26606
0.266059
0.266058
0.266057
0.266056
0.266055
0.266055
0.266054
0.266053
0.266052
0.266052
0.266051
0.26605
0.26605
0.266049
0.266049
0.266048
0.266047
0.266047
0.266046
0.266046
0.266045
0.266045
0.266044
0.266044
0.266043
0.266043
0.266042
0.266042
0.266041
0.266041
0.26604
0.26604
0.266039
0.266039
0.266038
0.266038
0.266037
0.266037
0.266036
0.266036
0.266035
0.266035
0.266034
0.266034
0.266033
0.266033
0.266032
0.266031
0.26603
0.26603
0.266029
0.266029
0.266026
0.266028
0.266022
0.266028
0.266014
0.266029
0.265991
0.266026
0.265924
0.265996
0.265715
0.265817
0.26505
0.264913
0.262521
0.261148
0.252815
0.245531
0.21959
0.18392
0.140395
0.127346
0.124925
0.124516
0.124449
0.124438
0.124436
0.124436
0.124436
0.124436
0.124436
0.124436
0.124436
0.124436
0.124436
0.124436
0.124436
0.124436
0.124436
0.124436
0.124436
0.124436
0.124436
0.124436
0.124436
0.124436
0.124436
0.124436
0.124436
0.124436
0.124436
0.124436
0.124436
0.124436
0.124436
0.124436
0.124436
0.124436
0.124436
0.124436
0.124436
0.124436
0.124436
0.124436
0.124436
0.124436
0.124436
0.124436
0.124436
0.124436
0.124436
0.124436
0.124436
0.124436
0.124436
0.124436
0.124436
0.124436
0.124436
0.124436
0.124436
0.124436
0.124436
0.124436
0.124436
0.124436
0.124436
0.124436
0.124436
0.124436
0.124436
0.124436
0.124436
0.124436
0.124436
0.124436
0.124436
0.124436
0.124436
0.124436
0.124436
0.124436
0.124436
0.124436
0.124436
0.124436
0.124436
0.124436
0.124436
0.124436
0.124436
0.124436
0.124436
0.124436
0.124436
0.124436
0.124436
0.124436
0.124436
0.124436
0.124436
0.124436
0.124436
0.124436
0.124436
0.124436
0.124436
0.124436
0.124436
0.124436
0.124436
0.124436
0.124436
0.124436
0.124436
0.124436
0.124436
0.124436
0.124436
0.124436
0.124436
0.124436
0.124436
0.124436
0.124436
0.124436
0.124436
0.124436
0.124436
0.124436
0.124436
0.124436
0.124436
0.124436
0.124436
0.124436
0.124436
0.124436
0.124436
0.124436
0.124436
0.124436
0.124436
0.124436
0.124436
0.124436
0.124436
0.124436
0.124436
0.124436
0.124436
0.124436
0.124436
0.124436
0.124436
0.124436
0.124436
0.124436
0.124436
0.124436
0.124436
0.124436
0.124436
0.124436
0.124436
0.124436
0.124436
0.124436
0.124436
0.124436
0.124436
0.124436
0.124436
0.124436
0.124436
0.124436
0.124436
0.124436
0.124436
0.124436
0.124436
0.124436
0.124436
0.124436
0.124436
0.124436
0.124436
0.124436
0.124436
0.124436
0.124436
0.124436
0.124436
0.124436
0.124436
0.124436
0.124436
0.124436
0.124436
0.124436
0.124436
0.124436
0.124436
0.124436
0.124436
0.124436
0.124436
0.124436
0.124436
0.124436
0.124436
0.124436
0.124436
0.124436
0.124436
0.124436
0.124436
0.124436
0.124436
0.124436
0.124436
0.124436
0.124436
0.124436
0.124436
0.124436
0.124436
0.124436
0.124436
0.124436
0.124436
0.124436
0.124436
0.124436
0.124436
0.124436
0.124436
0.124436
0.124436
0.124436
0.124436
0.124436
0.124436
0.124436
0.124436
0.124436
0.124436
0.124436
0.124436
0.124436
0.124436
0.124436
0.124436
0.124436
0.124436
0.124436
0.124436
0.124436
0.124436
0.124436
0.124436
0.124436
0.124436
0.124436
0.124436
0.124436
0.124436
0.124436
)
;

boundaryField
{
    sides
    {
        type            calculated;
        value           nonuniform List<scalar> 2(0.124436 0.995488);
    }
    empty
    {
        type            empty;
    }
}


// ************************************************************************* //
