/*--------------------------------*- C++ -*----------------------------------*\
  =========                 |
  \\      /  F ield         | OpenFOAM: The Open Source CFD Toolbox
   \\    /   O peration     | Website:  https://openfoam.org
    \\  /    A nd           | Version:  13
     \\/     M anipulation  |
\*---------------------------------------------------------------------------*/
FoamFile
{
    format      ascii;
    class       volScalarField;
    location    "0.004";
    object      T;
}
// * * * * * * * * * * * * * * * * * * * * * * * * * * * * * * * * * * * * * //

dimensions      [0 0 0 1 0 0 0];

internalField   nonuniform List<scalar> 
1000
(
348.432
348.432
348.432
348.432
348.432
348.432
348.432
348.432
348.432
348.432
348.432
348.432
348.432
348.432
348.432
348.432
348.432
348.432
348.432
348.432
348.432
348.432
348.432
348.432
348.432
348.432
348.432
348.432
348.432
348.432
348.432
348.432
348.432
348.432
348.432
348.432
348.432
348.432
348.432
348.432
348.432
348.432
348.432
348.432
348.432
348.432
348.432
348.432
348.432
348.432
348.432
348.432
348.432
348.432
348.432
348.432
348.432
348.432
348.432
348.432
348.432
348.432
348.432
348.432
348.432
348.432
348.432
348.432
348.432
348.432
348.432
348.432
348.432
348.432
348.432
348.432
348.432
348.432
348.432
348.432
348.432
348.432
348.432
348.432
348.432
348.432
348.432
348.432
348.432
348.432
348.432
348.432
348.432
348.432
348.432
348.432
348.432
348.432
348.432
348.432
348.432
348.432
348.432
348.432
348.432
348.432
348.432
348.432
348.432
348.432
348.432
348.432
348.432
348.432
348.432
348.432
348.432
348.432
348.432
348.432
348.432
348.432
348.432
348.432
348.432
348.432
348.432
348.432
348.432
348.432
348.432
348.432
348.432
348.432
348.432
348.432
348.432
348.432
348.432
348.432
348.432
348.432
348.432
348.432
348.432
348.432
348.432
348.432
348.432
348.432
348.432
348.432
348.432
348.432
348.432
348.432
348.432
348.432
348.432
348.432
348.432
348.432
348.432
348.432
348.432
348.432
348.432
348.432
348.432
348.432
348.432
348.432
348.432
348.432
348.432
348.432
348.432
348.432
348.432
348.432
348.432
348.432
348.432
348.432
348.432
348.432
348.432
348.432
348.432
348.432
348.432
348.432
348.432
348.432
348.432
348.432
348.432
348.432
348.432
348.432
348.432
348.432
348.432
348.432
348.432
348.432
348.432
348.432
348.432
348.432
348.432
348.432
348.432
348.432
348.432
348.432
348.432
348.432
348.432
348.432
348.432
348.432
348.432
348.432
348.432
348.432
348.432
348.432
348.432
348.432
348.432
348.432
348.432
348.432
348.432
348.432
348.432
348.432
348.432
348.432
348.432
348.432
348.432
348.432
348.432
348.432
348.432
348.432
348.432
348.432
348.432
348.432
348.432
348.432
348.432
348.432
348.432
348.432
348.432
348.432
348.432
348.432
348.432
348.432
348.432
348.432
348.432
348.432
348.432
348.432
348.432
348.432
348.432
348.432
348.432
348.432
348.432
348.432
348.432
348.432
348.432
348.432
348.432
348.432
348.432
348.432
348.432
348.432
348.432
348.432
348.432
348.432
348.432
348.432
348.432
348.432
348.432
348.432
348.432
348.432
348.432
348.432
348.432
348.432
348.432
348.432
348.432
348.432
348.432
348.432
348.432
348.432
348.432
348.432
348.432
348.432
348.432
348.432
348.432
348.432
348.432
348.432
348.432
348.432
348.432
348.432
348.432
348.432
348.431
348.431
348.43
348.429
348.426
348.422
348.415
348.403
348.384
348.355
348.31
348.246
348.156
348.035
347.878
347.683
347.448
347.17
346.853
346.496
346.101
345.672
345.212
344.722
344.205
343.665
343.104
342.524
341.927
341.316
340.691
340.054
339.407
338.75
338.086
337.414
336.736
336.052
335.364
334.67
333.973
333.273
332.569
331.862
331.154
330.443
329.73
329.015
328.299
327.582
326.864
326.145
325.426
324.705
323.985
323.264
322.542
321.821
321.1
320.378
319.657
318.937
318.216
317.497
316.778
316.059
315.342
314.625
313.91
313.196
312.484
311.774
311.065
310.359
309.656
308.957
308.261
307.57
306.885
306.207
305.538
304.88
304.236
303.608
303.002
302.421
301.873
301.364
300.9
300.487
300.13
299.83
299.588
299.401
299.261
299.161
299.094
299.051
299.025
299.009
299
299
299
299
299
299
299
299
299
299
299
299
299
299
299
299
299
299
299
299
299
299
299
299
299
299
299
299
299
299
299
299
299
299
299
299
299
299
299
299
299
299
299
299
299
299
299
299
299
299
299
299
299
299
299
299
299
299
299
299
299
299
299
299
299
299
299
299
299
299
299
299
299
299
299
299
299
299
299
299
299
299
299
299
299
299
299
299
299
299.001
299.002
299.003
299.003
299.003
299.004
299.004
299.003
299.003
299.003
299.002
299.002
299.002
299.003
299.003
299.004
299.005
299.006
299.007
299.008
299.009
299.009
299.01
299.01
299.011
299.011
299.011
299.011
299.011
299.011
299.012
299.012
299.012
299.012
299.013
299.013
299.013
299.013
299.013
299.014
299.014
299.014
299.014
299.014
299.015
299.015
299.015
299.016
299.016
299.016
299.017
299.017
299.017
299.018
299.018
299.019
299.019
299.019
299.02
299.02
299.021
299.021
299.021
299.022
299.022
299.023
299.023
299.024
299.024
299.025
299.025
299.026
299.026
299.027
299.028
299.028
299.029
299.03
299.031
299.032
299.034
299.036
299.04
299.045
299.054
299.069
299.091
299.126
299.182
299.266
299.394
299.586
299.867
300.275
300.855
301.668
302.787
304.299
306.308
308.928
312.281
316.488
321.663
327.894
335.23
343.655
353.069
363.264
373.911
384.56
394.675
403.713
411.241
417.057
421.233
424.044
425.839
426.936
427.581
427.947
428.146
428.249
428.298
428.318
428.325
428.326
428.325
428.322
428.316
428.308
428.298
428.289
428.283
428.279
428.277
428.276
428.275
428.275
428.275
428.275
428.275
428.276
428.277
428.278
428.279
428.28
428.281
428.282
428.283
428.283
428.284
428.285
428.285
428.286
428.286
428.287
428.287
428.288
428.288
428.288
428.289
428.289
428.289
428.29
428.29
428.29
428.29
428.291
428.291
428.291
428.291
428.291
428.291
428.291
428.291
428.291
428.291
428.291
428.291
428.291
428.291
428.291
428.291
428.291
428.291
428.291
428.291
428.291
428.291
428.291
428.291
428.29
428.29
428.29
428.29
428.288
428.29
428.286
428.291
428.281
428.291
428.267
428.29
428.224
428.27
428.092
428.15
427.662
427.549
426.037
424.998
419.707
413.879
395.055
363.185
317.048
302.004
299.483
299.078
299.013
299.002
299
299
299
299
299
299
299
299
299
299
299
299
299
299
299
299
299
299
299
299
299
299
299
299
299
299
299
299
299
299
299
299
299
299
299
299
299
299
299
299
299
299
299
299
299
299
299
299
299
299
299
299
299
299
299
299
299
299
299
299
299
299
299
299
299
299
299
299
299
299
299
299
299
299
299
299
299
299
299
299
299
299
299
299
299
299
299
299
299
299
299
299
299
299
299
299
299
299
299
299
299
299
299
299
299
299
299
299
299
299
299
299
299
299
299
299
299
299
299
299
299
299
299
299
299
299
299
299
299
299
299
299
299
299
299
299
299
299
299
299
299
299
299
299
299
299
299
299
299
299
299
299
299
299
299
299
299
299
299
299
299
299
299
299
299
299
299
299
299
299
299
299
299
299
299
299
299
299
299
299
299
299
299
299
299
299
299
299
299
299
299
299
299
299
299
299
299
299
299
299
299
299
299
299
299
299
299
299
299
299
299
299
299
299
299
299
299
299
299
299
299
299
299
299
299
299
299
299
299
299
299
299
299
299
299
299
299
299
299
299
299
299
299
299
299
299
299
299
299
299
299
299
299
299
299
299
299
299
299
299
299
299
)
;

boundaryField
{
    sides
    {
        type            zeroGradient;
    }
    empty
    {
        type            empty;
    }
}


// ************************************************************************* //
