/*--------------------------------*- C++ -*----------------------------------*\
  =========                 |
  \\      /  F ield         | OpenFOAM: The Open Source CFD Toolbox
   \\    /   O peration     | Website:  https://openfoam.org
    \\  /    A nd           | Version:  13
     \\/     M anipulation  |
\*---------------------------------------------------------------------------*/
FoamFile
{
    format      ascii;
    class       volVectorField;
    location    "0.004";
    object      U;
}
// * * * * * * * * * * * * * * * * * * * * * * * * * * * * * * * * * * * * * //

dimensions      [0 1 -1 0 0 0 0];

internalField   nonuniform List<vector> 
1000
(
(-1.38835e-13 0 0)
(-1.02326e-13 0 0)
(-7.30787e-14 0 0)
(-2.19477e-14 0 0)
(7.30761e-15 0 0)
(3.64916e-14 0 0)
(-2.0285e-17 0 0)
(-6.56913e-14 0 0)
(-1.46344e-14 0 0)
(7.30493e-15 0 0)
(2.92037e-14 0 0)
(7.34273e-15 0 0)
(3.6495e-14 0 0)
(-1.98694e-17 0 0)
(-6.56934e-14 0 0)
(-1.46406e-14 0 0)
(-1.19549e-17 0 0)
(1.03994e-17 0 0)
(1.46161e-14 0 0)
(2.92022e-14 0 0)
(1.40791e-17 0 0)
(-7.31687e-15 0 0)
(-2.92025e-14 0 0)
(-7.31853e-15 0 0)
(-6.62756e-18 0 0)
(3.46746e-26 0 0)
(6.62762e-18 0 0)
(7.31854e-15 0 0)
(2.92045e-14 0 0)
(7.34314e-15 0 0)
(3.64942e-14 0 0)
(-2.02833e-17 0 0)
(-6.56913e-14 0 0)
(-1.46344e-14 0 0)
(7.30493e-15 0 0)
(2.92037e-14 0 0)
(7.34273e-15 0 0)
(3.6495e-14 0 0)
(-1.98694e-17 0 0)
(-6.56934e-14 0 0)
(-1.46406e-14 0 0)
(-1.19549e-17 0 0)
(1.03994e-17 0 0)
(1.46161e-14 0 0)
(2.92022e-14 0 0)
(1.40791e-17 0 0)
(-7.31687e-15 0 0)
(-2.92025e-14 0 0)
(-7.31853e-15 0 0)
(-6.62756e-18 0 0)
(3.46746e-26 0 0)
(6.62762e-18 0 0)
(7.31854e-15 0 0)
(2.92045e-14 0 0)
(7.34314e-15 0 0)
(3.64942e-14 0 0)
(-2.02833e-17 0 0)
(-6.56913e-14 0 0)
(-1.46344e-14 0 0)
(7.30493e-15 0 0)
(2.92037e-14 0 0)
(7.34273e-15 0 0)
(3.6495e-14 0 0)
(-1.98694e-17 0 0)
(-6.56934e-14 0 0)
(-1.46406e-14 0 0)
(-1.19549e-17 0 0)
(1.03994e-17 0 0)
(1.46161e-14 0 0)
(2.92022e-14 0 0)
(1.40791e-17 0 0)
(-7.31687e-15 0 0)
(-2.92025e-14 0 0)
(-7.31877e-15 0 0)
(-5.11697e-14 0 0)
(-1.68106e-13 0 0)
(-2.3388e-13 0 0)
(-2.85042e-13 0 0)
(-4.82416e-13 0 0)
(-4.89667e-13 0 0)
(-4.02045e-13 0 0)
(-5.48186e-13 0 0)
(-5.91936e-13 0 0)
(-5.11643e-13 0 0)
(-4.53167e-13 0 0)
(-5.70125e-13 0 0)
(-5.04291e-13 0 0)
(-5.62827e-13 0 0)
(-7.382e-13 0 0)
(-5.99255e-13 0 0)
(-3.7278e-13 0 0)
(-2.04667e-13 0 0)
(-8.03899e-14 0 0)
(-8.04126e-14 0 0)
(-1.3889e-13 0 0)
(-1.82707e-13 0 0)
(-2.11973e-13 0 0)
(-4.02006e-13 0 0)
(-5.18854e-13 0 0)
(-3.87384e-13 0 0)
(-2.99787e-13 0 0)
(-3.06899e-13 0 0)
(-3.65466e-13 0 0)
(-3.58105e-13 0 0)
(-4.09272e-13 0 0)
(-4.8975e-13 0 0)
(-4.97016e-13 0 0)
(-5.62745e-13 0 0)
(-4.53166e-13 0 0)
(-2.85042e-13 0 0)
(-3.28938e-13 0 0)
(-3.06984e-13 0 0)
(-4.02002e-13 0 0)
(-5.26161e-13 0 0)
(-4.60467e-13 0 0)
(-3.50895e-13 0 0)
(-4.0195e-13 0 0)
(-3.2892e-13 0 0)
(-2.85076e-13 0 0)
(-2.77723e-13 0 0)
(-3.14295e-13 0 0)
(-3.58116e-13 0 0)
(-3.21568e-13 0 0)
(-2.48528e-13 0 0)
(-2.63042e-13 0 0)
(-2.04741e-13 0 0)
(-2.19245e-13 0 0)
(-2.11967e-13 0 0)
(-1.46238e-13 0 0)
(-2.33872e-13 0 0)
(-3.36181e-13 0 0)
(-4.45825e-13 0 0)
(-4.6777e-13 0 0)
(-4.1664e-13 0 0)
(-4.67747e-13 0 0)
(-4.38533e-13 0 0)
(-3.58191e-13 0 0)
(-4.6777e-13 0 0)
(-5.33486e-13 0 0)
(-5.1892e-13 0 0)
(-4.4591e-13 0 0)
(-4.96948e-13 0 0)
(-4.02027e-13 0 0)
(-4.01978e-13 0 0)
(-2.55883e-13 0 0)
(-4.38516e-13 0 0)
(-5.04248e-13 0 0)
(-4.09297e-13 0 0)
(-3.65491e-13 0 0)
(-3.94559e-13 0 0)
(-2.12078e-13 0 0)
(-1.97342e-13 0 0)
(-2.04637e-13 0 0)
(-1.31616e-13 0 0)
(-1.4618e-13 0 0)
(-1.60668e-13 0 0)
(1.45614e-14 0 0)
(-2.19382e-14 0 0)
(-2.19111e-14 0 0)
(-7.29575e-15 0 0)
(-2.92275e-14 0 0)
(1.02242e-13 0 0)
(1.45988e-14 0 0)
(-1.09561e-13 0 0)
(-9.50297e-14 0 0)
(-1.31561e-13 0 0)
(-7.3121e-14 0 0)
(-1.242e-13 0 0)
(-8.04078e-14 0 0)
(-2.19764e-14 0 0)
(-7.30844e-14 0 0)
(-1.53441e-13 0 0)
(-1.24243e-13 0 0)
(-1.02399e-13 0 0)
(-2.19124e-13 0 0)
(-7.313e-14 0 0)
(1.45765e-14 0 0)
(7.30614e-14 0 0)
(-5.09791e-17 0 0)
(-1.46172e-13 0 0)
(-2.2643e-13 0 0)
(7.09603e-18 0 0)
(1.53456e-13 0 0)
(2.99625e-13 0 0)
(3.8008e-13 0 0)
(4.45816e-13 0 0)
(4.8234e-13 0 0)
(4.31212e-13 0 0)
(3.36288e-13 0 0)
(3.65438e-13 0 0)
(3.87359e-13 0 0)
(4.02e-13 0 0)
(3.80096e-13 0 0)
(4.3121e-13 0 0)
(5.33456e-13 0 0)
(4.1662e-13 0 0)
(2.99735e-13 0 0)
(3.72733e-13 0 0)
(2.99672e-13 0 0)
(2.99763e-13 0 0)
(4.53103e-13 0 0)
(4.75052e-13 0 0)
(4.31232e-13 0 0)
(5.11545e-13 0 0)
(3.80082e-13 0 0)
(3.14348e-13 0 0)
(3.5078e-13 0 0)
(3.28953e-13 0 0)
(3.58147e-13 0 0)
(4.67793e-13 0 0)
(5.26224e-13 0 0)
(5.04257e-13 0 0)
(4.16592e-13 0 0)
(2.8514e-13 0 0)
(3.58125e-13 0 0)
(4.01969e-13 0 0)
(4.23947e-13 0 0)
(4.31227e-13 0 0)
(3.72721e-13 0 0)
(4.38461e-13 0 0)
(1.75457e-13 0 0)
(-8.76742e-14 0 0)
(-1.24255e-13 0 0)
(-2.55863e-13 0 0)
(-3.28776e-13 0 0)
(-7.31142e-14 0 0)
(-7.30758e-14 0 0)
(-6.58713e-14 0 0)
(4.38178e-14 0 0)
(-1.0227e-13 0 0)
(-2.26555e-13 0 0)
(-2.04634e-13 0 0)
(-1.97429e-13 0 0)
(-1.5347e-13 0 0)
(-2.11896e-13 0 0)
(-3.50836e-13 0 0)
(-5.40874e-13 0 0)
(-6.06654e-13 0 0)
(-7.23614e-13 0 0)
(-9.13571e-13 0 0)
(-8.69773e-13 0 0)
(-7.82059e-13 0 0)
(-8.84364e-13 0 0)
(-1.02328e-12 0 0)
(-1.1256e-12 0 0)
(-1.19131e-12 0 0)
(-1.07444e-12 0 0)
(-9.28217e-13 0 0)
(-6.72435e-13 0 0)
(-5.04269e-13 0 0)
(-2.92404e-13 0 0)
(-3.58163e-13 0 0)
(-5.55459e-13 0 0)
(-6.94358e-13 0 0)
(-7.74717e-13 0 0)
(-6.43214e-13 0 0)
(-5.77382e-13 0 0)
(-6.35882e-13 0 0)
(-6.79747e-13 0 0)
(-8.55138e-13 0 0)
(-1.00135e-12 0 0)
(-1.20596e-12 0 0)
(-1.38136e-12 0 0)
(-1.27178e-12 0 0)
(-1.17672e-12 0 0)
(-1.05981e-12 0 0)
(-1.00134e-12 0 0)
(-1.06709e-12 0 0)
(-1.16945e-12 0 0)
(-1.07441e-12 0 0)
(-9.86652e-13 0 0)
(-7.30929e-13 0 0)
(-5.77384e-13 0 0)
(-5.99383e-13 0 0)
(-6.21209e-13 0 0)
(-6.28592e-13 0 0)
(-5.99369e-13 0 0)
(-5.92006e-13 0 0)
(-5.40864e-13 0 0)
(-6.35857e-13 0 0)
(-5.70124e-13 0 0)
(-5.7738e-13 0 0)
(-5.70082e-13 0 0)
(-4.3854e-13 0 0)
(-2.92363e-13 0 0)
(-1.90057e-13 0 0)
(-6.57586e-14 0 0)
(-7.31791e-15 0 0)
(-5.11648e-14 0 0)
(1.46358e-14 0 0)
(8.76887e-14 0 0)
(-1.45954e-14 0 0)
(-1.0964e-13 0 0)
(-1.02332e-13 0 0)
(-1.4617e-13 0 0)
(-1.97326e-13 0 0)
(-1.5351e-13 0 0)
(-2.11937e-13 0 0)
(1.45987e-14 0 0)
(4.38597e-13 0 0)
(1.19861e-12 0 0)
(2.25116e-12 0 0)
(5.04318e-12 0 0)
(1.12778e-11 0 0)
(2.50041e-11 0 0)
(5.68784e-11 0 0)
(1.29215e-10 0 0)
(2.93784e-10 0 0)
(6.63377e-10 0 0)
(1.48966e-09 0 0)
(3.32504e-09 0 0)
(7.36379e-09 0 0)
(1.61833e-08 0 0)
(3.52878e-08 0 0)
(7.63243e-08 0 0)
(1.63725e-07 0 0)
(3.4824e-07 0 0)
(7.34315e-07 0 0)
(1.53468e-06 0 0)
(3.17828e-06 0 0)
(6.52071e-06 0 0)
(1.32499e-05 0 0)
(2.66572e-05 0 0)
(5.3085e-05 0 0)
(0.0001046 0 0)
(0.000203861 0 0)
(0.000392826 0 0)
(0.000748049 0 0)
(0.00140703 0 0)
(0.00261258 0 0)
(0.00478571 0 0)
(0.00864183 0 0)
(0.0153698 0 0)
(0.0268956 0 0)
(0.0462487 0 0)
(0.078028 0 0)
(0.128917 0 0)
(0.208112 0 0)
(0.327422 0 0)
(0.500798 0 0)
(0.743176 0 0)
(1.06889 0 0)
(1.49011 0 0)
(2.01578 0 0)
(2.65121 0 0)
(3.39813 0 0)
(4.25526 0 0)
(5.21884 0 0)
(6.28339 0 0)
(7.44227 0 0)
(8.68826 0 0)
(10.0139 0 0)
(11.4118 0 0)
(12.8751 0 0)
(14.397 0 0)
(15.9715 0 0)
(17.593 0 0)
(19.2566 0 0)
(20.9577 0 0)
(22.6924 0 0)
(24.4571 0 0)
(26.2485 0 0)
(28.064 0 0)
(29.901 0 0)
(31.7574 0 0)
(33.6312 0 0)
(35.5207 0 0)
(37.4244 0 0)
(39.3409 0 0)
(41.269 0 0)
(43.2076 0 0)
(45.1559 0 0)
(47.1128 0 0)
(49.0777 0 0)
(51.0498 0 0)
(53.0286 0 0)
(55.0134 0 0)
(57.0037 0 0)
(58.999 0 0)
(60.999 0 0)
(63.0032 0 0)
(65.0111 0 0)
(67.0226 0 0)
(69.0372 0 0)
(71.0546 0 0)
(73.0746 0 0)
(75.0968 0 0)
(77.121 0 0)
(79.1468 0 0)
(81.174 0 0)
(83.2022 0 0)
(85.2313 0 0)
(87.2609 0 0)
(89.2906 0 0)
(91.3201 0 0)
(93.3489 0 0)
(95.3767 0 0)
(97.4029 0 0)
(99.4269 0 0)
(101.448 0 0)
(103.465 0 0)
(105.478 0 0)
(107.485 0 0)
(109.484 0 0)
(111.475 0 0)
(113.453 0 0)
(115.417 0 0)
(117.363 0 0)
(119.286 0 0)
(121.179 0 0)
(123.036 0 0)
(124.845 0 0)
(126.596 0 0)
(128.272 0 0)
(129.856 0 0)
(131.331 0 0)
(132.675 0 0)
(133.873 0 0)
(134.909 0 0)
(135.778 0 0)
(136.48 0 0)
(137.026 0 0)
(137.433 0 0)
(137.722 0 0)
(137.918 0 0)
(138.044 0 0)
(138.121 0 0)
(138.166 0 0)
(138.192 0 0)
(138.218 0 0)
(138.257 0 0)
(138.326 0 0)
(138.449 0 0)
(138.662 0 0)
(139.016 0 0)
(139.572 0 0)
(140.383 0 0)
(141.478 0 0)
(142.849 0 0)
(144.463 0 0)
(146.274 0 0)
(148.237 0 0)
(150.316 0 0)
(152.483 0 0)
(154.716 0 0)
(156.999 0 0)
(159.321 0 0)
(161.673 0 0)
(164.049 0 0)
(166.445 0 0)
(168.855 0 0)
(171.279 0 0)
(173.713 0 0)
(176.155 0 0)
(178.605 0 0)
(181.061 0 0)
(183.522 0 0)
(185.988 0 0)
(188.458 0 0)
(190.931 0 0)
(193.407 0 0)
(195.886 0 0)
(198.367 0 0)
(200.85 0 0)
(203.335 0 0)
(205.822 0 0)
(208.311 0 0)
(210.801 0 0)
(213.292 0 0)
(215.785 0 0)
(218.279 0 0)
(220.774 0 0)
(223.27 0 0)
(225.767 0 0)
(228.264 0 0)
(230.763 0 0)
(233.262 0 0)
(235.762 0 0)
(238.263 0 0)
(240.764 0 0)
(243.265 0 0)
(245.767 0 0)
(248.268 0 0)
(250.77 0 0)
(253.271 0 0)
(255.771 0 0)
(258.271 0 0)
(260.768 0 0)
(263.264 0 0)
(265.758 0 0)
(268.247 0 0)
(270.733 0 0)
(273.212 0 0)
(275.685 0 0)
(278.147 0 0)
(280.598 0 0)
(283.033 0 0)
(285.447 0 0)
(287.835 0 0)
(290.188 0 0)
(292.5 0 0)
(294.753 0 0)
(296.931 0 0)
(298.991 0 0)
(300.889 0 0)
(302.579 0 0)
(304.02 0 0)
(305.184 0 0)
(306.071 0 0)
(306.706 0 0)
(307.132 0 0)
(307.395 0 0)
(307.542 0 0)
(307.615 0 0)
(307.644 0 0)
(307.652 0 0)
(307.652 0 0)
(307.65 0 0)
(307.648 0 0)
(307.646 0 0)
(307.646 0 0)
(307.645 0 0)
(307.645 0 0)
(307.645 0 0)
(307.646 0 0)
(307.647 0 0)
(307.648 0 0)
(307.65 0 0)
(307.651 0 0)
(307.65 0 0)
(307.65 0 0)
(307.649 0 0)
(307.646 0 0)
(307.643 0 0)
(307.641 0 0)
(307.639 0 0)
(307.637 0 0)
(307.635 0 0)
(307.634 0 0)
(307.633 0 0)
(307.633 0 0)
(307.632 0 0)
(307.632 0 0)
(307.632 0 0)
(307.632 0 0)
(307.632 0 0)
(307.633 0 0)
(307.633 0 0)
(307.633 0 0)
(307.633 0 0)
(307.633 0 0)
(307.633 0 0)
(307.634 0 0)
(307.634 0 0)
(307.634 0 0)
(307.634 0 0)
(307.634 0 0)
(307.635 0 0)
(307.635 0 0)
(307.635 0 0)
(307.635 0 0)
(307.635 0 0)
(307.635 0 0)
(307.635 0 0)
(307.635 0 0)
(307.635 0 0)
(307.635 0 0)
(307.635 0 0)
(307.635 0 0)
(307.635 0 0)
(307.635 0 0)
(307.635 0 0)
(307.635 0 0)
(307.635 0 0)
(307.635 0 0)
(307.635 0 0)
(307.635 0 0)
(307.635 0 0)
(307.635 0 0)
(307.635 0 0)
(307.635 0 0)
(307.635 0 0)
(307.635 0 0)
(307.635 0 0)
(307.635 0 0)
(307.635 0 0)
(307.635 0 0)
(307.635 0 0)
(307.635 0 0)
(307.635 0 0)
(307.635 0 0)
(307.635 0 0)
(307.635 0 0)
(307.635 0 0)
(307.635 0 0)
(307.635 0 0)
(307.635 0 0)
(307.634 0 0)
(307.634 0 0)
(307.634 0 0)
(307.634 0 0)
(307.634 0 0)
(307.634 0 0)
(307.634 0 0)
(307.634 0 0)
(307.634 0 0)
(307.634 0 0)
(307.634 0 0)
(307.634 0 0)
(307.633 0 0)
(307.633 0 0)
(307.634 0 0)
(307.634 0 0)
(307.634 0 0)
(307.635 0 0)
(307.637 0 0)
(307.639 0 0)
(307.642 0 0)
(307.647 0 0)
(307.653 0 0)
(307.659 0 0)
(307.667 0 0)
(307.673 0 0)
(307.678 0 0)
(307.679 0 0)
(307.676 0 0)
(307.669 0 0)
(307.659 0 0)
(307.649 0 0)
(307.64 0 0)
(307.635 0 0)
(307.633 0 0)
(307.632 0 0)
(307.631 0 0)
(307.631 0 0)
(307.631 0 0)
(307.63 0 0)
(307.631 0 0)
(307.631 0 0)
(307.63 0 0)
(307.63 0 0)
(307.63 0 0)
(307.63 0 0)
(307.63 0 0)
(307.629 0 0)
(307.629 0 0)
(307.629 0 0)
(307.629 0 0)
(307.629 0 0)
(307.628 0 0)
(307.628 0 0)
(307.628 0 0)
(307.628 0 0)
(307.627 0 0)
(307.627 0 0)
(307.627 0 0)
(307.627 0 0)
(307.627 0 0)
(307.626 0 0)
(307.626 0 0)
(307.626 0 0)
(307.626 0 0)
(307.625 0 0)
(307.625 0 0)
(307.625 0 0)
(307.624 0 0)
(307.624 0 0)
(307.624 0 0)
(307.624 0 0)
(307.623 0 0)
(307.623 0 0)
(307.623 0 0)
(307.622 0 0)
(307.622 0 0)
(307.622 0 0)
(307.621 0 0)
(307.621 0 0)
(307.62 0 0)
(307.62 0 0)
(307.62 0 0)
(307.619 0 0)
(307.619 0 0)
(307.619 0 0)
(307.618 0 0)
(307.618 0 0)
(307.617 0 0)
(307.617 0 0)
(307.616 0 0)
(307.616 0 0)
(307.616 0 0)
(307.615 0 0)
(307.615 0 0)
(307.614 0 0)
(307.614 0 0)
(307.613 0 0)
(307.613 0 0)
(307.612 0 0)
(307.611 0 0)
(307.611 0 0)
(307.61 0 0)
(307.61 0 0)
(307.609 0 0)
(307.608 0 0)
(307.608 0 0)
(307.607 0 0)
(307.606 0 0)
(307.606 0 0)
(307.605 0 0)
(307.604 0 0)
(307.603 0 0)
(307.603 0 0)
(307.6 0 0)
(307.602 0 0)
(307.596 0 0)
(307.601 0 0)
(307.588 0 0)
(307.599 0 0)
(307.571 0 0)
(307.588 0 0)
(307.523 0 0)
(307.539 0 0)
(307.374 0 0)
(307.328 0 0)
(306.91 0 0)
(306.423 0 0)
(305.413 0 0)
(302.499 0 0)
(299.402 0 0)
(286.922 0 0)
(273.505 0 0)
(228.236 0 0)
(155.961 0 0)
(46.0327 0 0)
(8.28572 0 0)
(1.37552 0 0)
(0.224907 0 0)
(0.0366914 0 0)
(0.0059819 0 0)
(0.000975164 0 0)
(0.000158969 0 0)
(2.59148e-05 0 0)
(4.2246e-06 0 0)
(6.88689e-07 0 0)
(1.1227e-07 0 0)
(1.83019e-08 0 0)
(2.98385e-09 0 0)
(4.86327e-10 0 0)
(7.93528e-11 0 0)
(1.29309e-11 0 0)
(2.0691e-12 0 0)
(3.87221e-13 0 0)
(6.59887e-14 0 0)
(3.62836e-14 0 0)
(-1.43522e-17 0 0)
(-2.17987e-14 0 0)
(-2.88537e-14 0 0)
(5.05583e-14 0 0)
(1.97688e-16 0 0)
(-4.25588e-17 0 0)
(-1.43993e-14 0 0)
(1.43791e-14 0 0)
(-2.08986e-16 0 0)
(-5.78977e-14 0 0)
(-7.2616e-15 0 0)
(5.06615e-14 0 0)
(1.46902e-14 0 0)
(-5.49458e-18 0 0)
(-2.16717e-14 0 0)
(7.0738e-15 0 0)
(-1.43407e-14 0 0)
(2.16752e-14 0 0)
(7.32766e-15 0 0)
(3.36515e-17 0 0)
(-9.20253e-17 0 0)
(-2.16746e-14 0 0)
(7.10727e-15 0 0)
(-7.1102e-15 0 0)
(2.16325e-14 0 0)
(-7.19648e-15 0 0)
(-1.43881e-14 0 0)
(2.16325e-14 0 0)
(9.21685e-17 0 0)
(5.58578e-18 0 0)
(-8.95783e-17 0 0)
(-1.47548e-14 0 0)
(-5.81184e-14 0 0)
(-3.6363e-14 0 0)
(1.45959e-14 0 0)
(6.5312e-14 0 0)
(2.9253e-14 0 0)
(1.47688e-16 0 0)
(-8.34499e-17 0 0)
(-2.16774e-14 0 0)
(7.07377e-15 0 0)
(-1.43407e-14 0 0)
(2.16752e-14 0 0)
(7.32766e-15 0 0)
(3.36515e-17 0 0)
(-9.20253e-17 0 0)
(-2.16746e-14 0 0)
(7.10727e-15 0 0)
(-7.1102e-15 0 0)
(2.16325e-14 0 0)
(-7.19648e-15 0 0)
(-1.43881e-14 0 0)
(2.16325e-14 0 0)
(9.21579e-17 0 0)
(3.00768e-18 0 0)
(-1.1958e-16 0 0)
(-2.19518e-14 0 0)
(-5.08315e-14 0 0)
(-1.49138e-14 0 0)
(-4.38967e-14 0 0)
(-7.26742e-14 0 0)
(-1.5122e-14 0 0)
(-7.26138e-14 0 0)
(-2.23734e-14 0 0)
(-7.26384e-14 0 0)
(-2.22877e-14 0 0)
(-5.0932e-14 0 0)
(-2.94388e-14 0 0)
(-5.09025e-14 0 0)
(-2.19061e-14 0 0)
(2.16833e-14 0 0)
(-7.02127e-15 0 0)
(2.90594e-14 0 0)
(3.68016e-14 0 0)
(1.01812e-13 0 0)
(5.16177e-14 0 0)
(1.09201e-13 0 0)
(6.60843e-14 0 0)
(1.01954e-13 0 0)
(5.10363e-14 0 0)
(-2.17243e-14 0 0)
(-5.09039e-14 0 0)
(-3.64813e-14 0 0)
(-1.46079e-14 0 0)
(2.12355e-14 0 0)
(-9.4203e-14 0 0)
(-2.95656e-14 0 0)
(-4.37226e-14 0 0)
(-2.94151e-14 0 0)
(-5.09549e-14 0 0)
(-2.94428e-14 0 0)
(-5.09576e-14 0 0)
(-2.94399e-14 0 0)
(-5.09026e-14 0 0)
(-2.1904e-14 0 0)
(2.16802e-14 0 0)
(-7.02648e-15 0 0)
(2.90929e-14 0 0)
(4.3966e-14 0 0)
(8.01179e-14 0 0)
(5.87052e-14 0 0)
(8.74612e-14 0 0)
(6.60084e-14 0 0)
(1.0195e-13 0 0)
(5.10344e-14 0 0)
(-2.17237e-14 0 0)
(-5.09038e-14 0 0)
(-3.64813e-14 0 0)
(-1.46079e-14 0 0)
(2.12355e-14 0 0)
(-9.4203e-14 0 0)
(-2.95656e-14 0 0)
(-4.37226e-14 0 0)
(-2.94151e-14 0 0)
(-5.09549e-14 0 0)
(-2.94428e-14 0 0)
(-5.09576e-14 0 0)
(-2.94399e-14 0 0)
(-5.09025e-14 0 0)
(-2.19033e-14 0 0)
(2.89877e-14 0 0)
(-7.027e-15 0 0)
(1.44719e-14 0 0)
(-3.64271e-14 0 0)
(2.89571e-14 0 0)
(3.67682e-14 0 0)
(-2.21688e-14 0 0)
(-2.90305e-14 0 0)
(-9.53583e-14 0 0)
(-2.04732e-13 0 0)
(-1.60624e-13 0 0)
(-2.33823e-13 0 0)
(-5.18919e-13 0 0)
(-6.72368e-13 0 0)
(-7.24121e-13 0 0)
(-9.13048e-13 0 0)
(-1.14036e-12 0 0)
(-1.3229e-12 0 0)
(-1.72498e-12 0 0)
(-1.87106e-12 0 0)
(-2.06122e-12 0 0)
(-2.19221e-12 0 0)
(-1.90043e-12 0 0)
(-1.79824e-12 0 0)
(-1.78332e-12 0 0)
(-1.69546e-12 0 0)
(-1.58658e-12 0 0)
(-1.50562e-12 0 0)
(-1.41818e-12 0 0)
(-1.54961e-12 0 0)
(-1.73115e-12 0 0)
(-1.49894e-12 0 0)
(-1.60772e-12 0 0)
(-1.67323e-12 0 0)
(-1.52103e-12 0 0)
(-1.65191e-12 0 0)
(-1.84158e-12 0 0)
(-1.99436e-12 0 0)
(-1.70404e-12 0 0)
(-1.60785e-12 0 0)
(-1.62192e-12 0 0)
(-1.55771e-12 0 0)
(-1.7837e-12 0 0)
(-1.89979e-12 0 0)
(-1.87819e-12 0 0)
(-1.80619e-12 0 0)
(-2.05272e-12 0 0)
(-1.87135e-12 0 0)
(-1.83476e-12 0 0)
(-1.96554e-12 0 0)
(-1.98084e-12 0 0)
(-1.81312e-12 0 0)
(-1.55668e-12 0 0)
(-1.23535e-12 0 0)
(-9.80129e-13 0 0)
(-1.05138e-12 0 0)
(-9.14048e-13 0 0)
(-1.03804e-12 0 0)
(-1.21955e-12 0 0)
(-1.19897e-12 0 0)
(-1.13266e-12 0 0)
(-1.08126e-12 0 0)
(-9.79377e-13 0 0)
(-7.53969e-13 0 0)
(-8.10799e-13 0 0)
(-6.57543e-13 0 0)
(-5.26777e-13 0 0)
(-3.64957e-13 0 0)
(-1.46265e-13 0 0)
(6.55705e-14 0 0)
(2.25257e-13 0 0)
(2.29396e-14 0 0)
(1.38487e-13 0 0)
(2.93339e-14 0 0)
(-1.60003e-13 0 0)
(-1.02828e-13 0 0)
(-2.41097e-13 0 0)
(-1.97404e-13 0 0)
(-4.38113e-14 0 0)
(7.20831e-14 0 0)
(7.38412e-14 0 0)
(2.04539e-13 0 0)
(3.7983e-13 0 0)
(4.76262e-13 0 0)
(7.01331e-13 0 0)
(6.43384e-13 0 0)
(6.72306e-13 0 0)
(5.48846e-13 0 0)
(6.42264e-13 0 0)
(8.69427e-13 0 0)
(8.85087e-13 0 0)
(9.86504e-13 0 0)
(1.06011e-12 0 0)
(1.20537e-12 0 0)
(1.39587e-12 0 0)
(1.28589e-12 0 0)
(1.22837e-12 0 0)
(1.44709e-12 0 0)
(1.58621e-12 0 0)
(1.6521e-12 0 0)
(1.88534e-12 0 0)
(1.78327e-12 0 0)
(1.62994e-12 0 0)
(1.50564e-12 0 0)
(1.44646e-12 0 0)
(1.23642e-12 0 0)
(1.38815e-12 0 0)
(1.22751e-12 0 0)
(1.0612e-12 0 0)
(1.18374e-12 0 0)
(1.21315e-12 0 0)
(1.10452e-12 0 0)
(1.38101e-12 0 0)
(1.61402e-12 0 0)
(1.4768e-12 0 0)
(1.49115e-12 0 0)
(1.54955e-12 0 0)
(1.44055e-12 0 0)
(1.69551e-12 0 0)
(1.92936e-12 0 0)
(2.01587e-12 0 0)
(1.74067e-12 0 0)
(1.84886e-12 0 0)
(1.75435e-12 0 0)
(1.84965e-12 0 0)
(2.17707e-12 0 0)
(2.06883e-12 0 0)
)
;

boundaryField
{
    sides
    {
        type            zeroGradient;
    }
    empty
    {
        type            empty;
    }
}


// ************************************************************************* //
